n -t * -s 0  -x 0 -y 0 -Z 0 -z 40  -v circle -c black
n -t * -s 1  -x 0 -y 0 -Z 0 -z 40  -v circle -c black
n -t * -s 2  -x 0 -y 0 -Z 0 -z 40  -v circle -c black
n -t * -s 3  -x 0 -y 0 -Z 0 -z 40  -v circle -c black
n -t * -s 4  -x 0 -y 0 -Z 0 -z 40  -v circle -c black
n -t * -s 5  -x 0 -y 0 -Z 0 -z 40  -v circle -c black
V -t * -v 1.0a5 -a 0
W -t * -x 1000 -y 1000
A -t * -n 1 -p 0 -o 0x7fffffff -c 30 -a 1
A -t * -h 1 -m 1073741823 -s 0
n -t 0.000000 -s 0 -x 0.000000 -y 0.000000 -U 0.000000 -V 0.000000 -T 0.000000
n -t 0.000000 -s 1 -x 0.000000 -y 0.000000 -U 0.000000 -V 0.000000 -T 0.000000
n -t 0.000000 -s 2 -x 0.000000 -y 0.000000 -U 0.000000 -V 0.000000 -T 0.000000
n -t 0.000000 -s 3 -x 0.000000 -y 0.000000 -U 0.000000 -V 0.000000 -T 0.000000
n -t 0.000000 -s 4 -x 0.000000 -y 0.000000 -U 0.000000 -V 0.000000 -T 0.000000
n -t 0.000000 -s 5 -x 0.000000 -y 0.000000 -U 0.000000 -V 0.000000 -T 0.000000
+ -t 0.003808772 -s 0 -d -1 -p message -e 32 -c 2 -a 0 -i 0 -k RTR 
- -t 0.003808772 -s 0 -d -1 -p message -e 32 -c 2 -a 0 -i 0 -k RTR
h -t 0.003808772 -s 0 -d -1 -p message -e 32 -c 2 -a 0 -i 0 -k RTR
r -t 0.004868772 -s 1 -d -1 -p message -e 32 -c 2 -a 0 -i 0 -k RTR
r -t 0.004868772 -s 2 -d -1 -p message -e 32 -c 2 -a 0 -i 0 -k RTR
r -t 0.004868772 -s 3 -d -1 -p message -e 32 -c 2 -a 0 -i 0 -k RTR
r -t 0.004868772 -s 4 -d -1 -p message -e 32 -c 2 -a 0 -i 0 -k RTR
r -t 0.004868772 -s 5 -d -1 -p message -e 32 -c 2 -a 0 -i 0 -k RTR
+ -t 0.031500112 -s 2 -d -1 -p message -e 32 -c 2 -a 0 -i 1 -k RTR 
- -t 0.031500112 -s 2 -d -1 -p message -e 32 -c 2 -a 0 -i 1 -k RTR
h -t 0.031500112 -s 2 -d -1 -p message -e 32 -c 2 -a 0 -i 1 -k RTR
r -t 0.032360112 -s 1 -d -1 -p message -e 32 -c 2 -a 0 -i 1 -k RTR
r -t 0.032360112 -s 0 -d -1 -p message -e 32 -c 2 -a 0 -i 1 -k RTR
r -t 0.032360112 -s 3 -d -1 -p message -e 32 -c 2 -a 0 -i 1 -k RTR
r -t 0.032360112 -s 4 -d -1 -p message -e 32 -c 2 -a 0 -i 1 -k RTR
r -t 0.032360112 -s 5 -d -1 -p message -e 32 -c 2 -a 0 -i 1 -k RTR
+ -t 0.182646019 -s 3 -d -1 -p message -e 32 -c 2 -a 0 -i 2 -k RTR 
- -t 0.182646019 -s 3 -d -1 -p message -e 32 -c 2 -a 0 -i 2 -k RTR
h -t 0.182646019 -s 3 -d -1 -p message -e 32 -c 2 -a 0 -i 2 -k RTR
r -t 0.183706019 -s 2 -d -1 -p message -e 32 -c 2 -a 0 -i 2 -k RTR
r -t 0.183706019 -s 1 -d -1 -p message -e 32 -c 2 -a 0 -i 2 -k RTR
r -t 0.183706019 -s 0 -d -1 -p message -e 32 -c 2 -a 0 -i 2 -k RTR
r -t 0.183706019 -s 4 -d -1 -p message -e 32 -c 2 -a 0 -i 2 -k RTR
r -t 0.183706019 -s 5 -d -1 -p message -e 32 -c 2 -a 0 -i 2 -k RTR
+ -t 0.500000000 -s 0 -d -1 -p cbr -e 500 -c 2 -a 0 -i 3 -k AGT 
- -t 0.500000000 -s 0 -d -1 -p cbr -e 500 -c 2 -a 0 -i 3 -k AGT
h -t 0.500000000 -s 0 -d -1 -p cbr -e 500 -c 2 -a 0 -i 3 -k AGT
+ -t 0.505000000 -s 0 -d -1 -p cbr -e 500 -c 2 -a 0 -i 4 -k AGT 
- -t 0.505000000 -s 0 -d -1 -p cbr -e 500 -c 2 -a 0 -i 4 -k AGT
h -t 0.505000000 -s 0 -d -1 -p cbr -e 500 -c 2 -a 0 -i 4 -k AGT
+ -t 0.510000000 -s 0 -d -1 -p cbr -e 500 -c 2 -a 0 -i 5 -k AGT 
- -t 0.510000000 -s 0 -d -1 -p cbr -e 500 -c 2 -a 0 -i 5 -k AGT
h -t 0.510000000 -s 0 -d -1 -p cbr -e 500 -c 2 -a 0 -i 5 -k AGT
+ -t 0.515000000 -s 0 -d -1 -p cbr -e 500 -c 2 -a 0 -i 6 -k AGT 
- -t 0.515000000 -s 0 -d -1 -p cbr -e 500 -c 2 -a 0 -i 6 -k AGT
h -t 0.515000000 -s 0 -d -1 -p cbr -e 500 -c 2 -a 0 -i 6 -k AGT
+ -t 0.520000000 -s 0 -d -1 -p cbr -e 500 -c 2 -a 0 -i 7 -k AGT 
- -t 0.520000000 -s 0 -d -1 -p cbr -e 500 -c 2 -a 0 -i 7 -k AGT
h -t 0.520000000 -s 0 -d -1 -p cbr -e 500 -c 2 -a 0 -i 7 -k AGT
+ -t 0.525000000 -s 0 -d -1 -p cbr -e 500 -c 2 -a 0 -i 8 -k AGT 
- -t 0.525000000 -s 0 -d -1 -p cbr -e 500 -c 2 -a 0 -i 8 -k AGT
h -t 0.525000000 -s 0 -d -1 -p cbr -e 500 -c 2 -a 0 -i 8 -k AGT
d -t 0.525000000 -s 0 -d -1 -p cbr -e 520 -c 2 -a 0 -i 3 -k RTR
+ -t 0.530000000 -s 0 -d -1 -p cbr -e 500 -c 2 -a 0 -i 9 -k AGT 
- -t 0.530000000 -s 0 -d -1 -p cbr -e 500 -c 2 -a 0 -i 9 -k AGT
h -t 0.530000000 -s 0 -d -1 -p cbr -e 500 -c 2 -a 0 -i 9 -k AGT
d -t 0.530000000 -s 0 -d -1 -p cbr -e 520 -c 2 -a 0 -i 4 -k RTR
+ -t 0.535000000 -s 0 -d -1 -p cbr -e 500 -c 2 -a 0 -i 10 -k AGT 
- -t 0.535000000 -s 0 -d -1 -p cbr -e 500 -c 2 -a 0 -i 10 -k AGT
h -t 0.535000000 -s 0 -d -1 -p cbr -e 500 -c 2 -a 0 -i 10 -k AGT
d -t 0.535000000 -s 0 -d -1 -p cbr -e 520 -c 2 -a 0 -i 5 -k RTR
+ -t 0.540000000 -s 0 -d -1 -p cbr -e 500 -c 2 -a 0 -i 11 -k AGT 
- -t 0.540000000 -s 0 -d -1 -p cbr -e 500 -c 2 -a 0 -i 11 -k AGT
h -t 0.540000000 -s 0 -d -1 -p cbr -e 500 -c 2 -a 0 -i 11 -k AGT
d -t 0.540000000 -s 0 -d -1 -p cbr -e 520 -c 2 -a 0 -i 6 -k RTR
+ -t 0.545000000 -s 0 -d -1 -p cbr -e 500 -c 2 -a 0 -i 12 -k AGT 
- -t 0.545000000 -s 0 -d -1 -p cbr -e 500 -c 2 -a 0 -i 12 -k AGT
h -t 0.545000000 -s 0 -d -1 -p cbr -e 500 -c 2 -a 0 -i 12 -k AGT
d -t 0.545000000 -s 0 -d -1 -p cbr -e 520 -c 2 -a 0 -i 7 -k RTR
+ -t 0.550000000 -s 0 -d -1 -p cbr -e 500 -c 2 -a 0 -i 13 -k AGT 
- -t 0.550000000 -s 0 -d -1 -p cbr -e 500 -c 2 -a 0 -i 13 -k AGT
h -t 0.550000000 -s 0 -d -1 -p cbr -e 500 -c 2 -a 0 -i 13 -k AGT
d -t 0.550000000 -s 0 -d -1 -p cbr -e 520 -c 2 -a 0 -i 8 -k RTR
+ -t 0.555000000 -s 0 -d -1 -p cbr -e 500 -c 2 -a 0 -i 14 -k AGT 
- -t 0.555000000 -s 0 -d -1 -p cbr -e 500 -c 2 -a 0 -i 14 -k AGT
h -t 0.555000000 -s 0 -d -1 -p cbr -e 500 -c 2 -a 0 -i 14 -k AGT
d -t 0.555000000 -s 0 -d -1 -p cbr -e 520 -c 2 -a 0 -i 9 -k RTR
+ -t 0.560000000 -s 0 -d -1 -p cbr -e 500 -c 2 -a 0 -i 15 -k AGT 
- -t 0.560000000 -s 0 -d -1 -p cbr -e 500 -c 2 -a 0 -i 15 -k AGT
h -t 0.560000000 -s 0 -d -1 -p cbr -e 500 -c 2 -a 0 -i 15 -k AGT
d -t 0.560000000 -s 0 -d -1 -p cbr -e 520 -c 2 -a 0 -i 10 -k RTR
+ -t 0.565000000 -s 0 -d -1 -p cbr -e 500 -c 2 -a 0 -i 16 -k AGT 
- -t 0.565000000 -s 0 -d -1 -p cbr -e 500 -c 2 -a 0 -i 16 -k AGT
h -t 0.565000000 -s 0 -d -1 -p cbr -e 500 -c 2 -a 0 -i 16 -k AGT
d -t 0.565000000 -s 0 -d -1 -p cbr -e 520 -c 2 -a 0 -i 11 -k RTR
+ -t 0.570000000 -s 0 -d -1 -p cbr -e 500 -c 2 -a 0 -i 17 -k AGT 
- -t 0.570000000 -s 0 -d -1 -p cbr -e 500 -c 2 -a 0 -i 17 -k AGT
h -t 0.570000000 -s 0 -d -1 -p cbr -e 500 -c 2 -a 0 -i 17 -k AGT
d -t 0.570000000 -s 0 -d -1 -p cbr -e 520 -c 2 -a 0 -i 12 -k RTR
+ -t 0.575000000 -s 0 -d -1 -p cbr -e 500 -c 2 -a 0 -i 18 -k AGT 
- -t 0.575000000 -s 0 -d -1 -p cbr -e 500 -c 2 -a 0 -i 18 -k AGT
h -t 0.575000000 -s 0 -d -1 -p cbr -e 500 -c 2 -a 0 -i 18 -k AGT
d -t 0.575000000 -s 0 -d -1 -p cbr -e 520 -c 2 -a 0 -i 13 -k RTR
+ -t 0.580000000 -s 0 -d -1 -p cbr -e 500 -c 2 -a 0 -i 19 -k AGT 
- -t 0.580000000 -s 0 -d -1 -p cbr -e 500 -c 2 -a 0 -i 19 -k AGT
h -t 0.580000000 -s 0 -d -1 -p cbr -e 500 -c 2 -a 0 -i 19 -k AGT
d -t 0.580000000 -s 0 -d -1 -p cbr -e 520 -c 2 -a 0 -i 14 -k RTR
+ -t 0.585000000 -s 0 -d -1 -p cbr -e 500 -c 2 -a 0 -i 20 -k AGT 
- -t 0.585000000 -s 0 -d -1 -p cbr -e 500 -c 2 -a 0 -i 20 -k AGT
h -t 0.585000000 -s 0 -d -1 -p cbr -e 500 -c 2 -a 0 -i 20 -k AGT
d -t 0.585000000 -s 0 -d -1 -p cbr -e 520 -c 2 -a 0 -i 15 -k RTR
+ -t 0.590000000 -s 0 -d -1 -p cbr -e 500 -c 2 -a 0 -i 21 -k AGT 
- -t 0.590000000 -s 0 -d -1 -p cbr -e 500 -c 2 -a 0 -i 21 -k AGT
h -t 0.590000000 -s 0 -d -1 -p cbr -e 500 -c 2 -a 0 -i 21 -k AGT
d -t 0.590000000 -s 0 -d -1 -p cbr -e 520 -c 2 -a 0 -i 16 -k RTR
+ -t 0.595000000 -s 0 -d -1 -p cbr -e 500 -c 2 -a 0 -i 22 -k AGT 
- -t 0.595000000 -s 0 -d -1 -p cbr -e 500 -c 2 -a 0 -i 22 -k AGT
h -t 0.595000000 -s 0 -d -1 -p cbr -e 500 -c 2 -a 0 -i 22 -k AGT
d -t 0.595000000 -s 0 -d -1 -p cbr -e 520 -c 2 -a 0 -i 17 -k RTR
+ -t 0.600000000 -s 0 -d -1 -p cbr -e 500 -c 2 -a 0 -i 23 -k AGT 
- -t 0.600000000 -s 0 -d -1 -p cbr -e 500 -c 2 -a 0 -i 23 -k AGT
h -t 0.600000000 -s 0 -d -1 -p cbr -e 500 -c 2 -a 0 -i 23 -k AGT
d -t 0.600000000 -s 0 -d -1 -p cbr -e 520 -c 2 -a 0 -i 18 -k RTR
+ -t 0.605000000 -s 0 -d -1 -p cbr -e 500 -c 2 -a 0 -i 24 -k AGT 
- -t 0.605000000 -s 0 -d -1 -p cbr -e 500 -c 2 -a 0 -i 24 -k AGT
h -t 0.605000000 -s 0 -d -1 -p cbr -e 500 -c 2 -a 0 -i 24 -k AGT
d -t 0.605000000 -s 0 -d -1 -p cbr -e 520 -c 2 -a 0 -i 19 -k RTR
+ -t 0.610000000 -s 0 -d -1 -p cbr -e 500 -c 2 -a 0 -i 25 -k AGT 
- -t 0.610000000 -s 0 -d -1 -p cbr -e 500 -c 2 -a 0 -i 25 -k AGT
h -t 0.610000000 -s 0 -d -1 -p cbr -e 500 -c 2 -a 0 -i 25 -k AGT
d -t 0.610000000 -s 0 -d -1 -p cbr -e 520 -c 2 -a 0 -i 20 -k RTR
+ -t 0.615000000 -s 0 -d -1 -p cbr -e 500 -c 2 -a 0 -i 26 -k AGT 
- -t 0.615000000 -s 0 -d -1 -p cbr -e 500 -c 2 -a 0 -i 26 -k AGT
h -t 0.615000000 -s 0 -d -1 -p cbr -e 500 -c 2 -a 0 -i 26 -k AGT
d -t 0.615000000 -s 0 -d -1 -p cbr -e 520 -c 2 -a 0 -i 21 -k RTR
+ -t 0.620000000 -s 0 -d -1 -p cbr -e 500 -c 2 -a 0 -i 27 -k AGT 
- -t 0.620000000 -s 0 -d -1 -p cbr -e 500 -c 2 -a 0 -i 27 -k AGT
h -t 0.620000000 -s 0 -d -1 -p cbr -e 500 -c 2 -a 0 -i 27 -k AGT
d -t 0.620000000 -s 0 -d -1 -p cbr -e 520 -c 2 -a 0 -i 22 -k RTR
+ -t 0.625000000 -s 0 -d -1 -p cbr -e 500 -c 2 -a 0 -i 28 -k AGT 
- -t 0.625000000 -s 0 -d -1 -p cbr -e 500 -c 2 -a 0 -i 28 -k AGT
h -t 0.625000000 -s 0 -d -1 -p cbr -e 500 -c 2 -a 0 -i 28 -k AGT
d -t 0.625000000 -s 0 -d -1 -p cbr -e 520 -c 2 -a 0 -i 23 -k RTR
+ -t 0.630000000 -s 0 -d -1 -p cbr -e 500 -c 2 -a 0 -i 29 -k AGT 
- -t 0.630000000 -s 0 -d -1 -p cbr -e 500 -c 2 -a 0 -i 29 -k AGT
h -t 0.630000000 -s 0 -d -1 -p cbr -e 500 -c 2 -a 0 -i 29 -k AGT
d -t 0.630000000 -s 0 -d -1 -p cbr -e 520 -c 2 -a 0 -i 24 -k RTR
+ -t 0.635000000 -s 0 -d -1 -p cbr -e 500 -c 2 -a 0 -i 30 -k AGT 
- -t 0.635000000 -s 0 -d -1 -p cbr -e 500 -c 2 -a 0 -i 30 -k AGT
h -t 0.635000000 -s 0 -d -1 -p cbr -e 500 -c 2 -a 0 -i 30 -k AGT
d -t 0.635000000 -s 0 -d -1 -p cbr -e 520 -c 2 -a 0 -i 25 -k RTR
+ -t 0.640000000 -s 0 -d -1 -p cbr -e 500 -c 2 -a 0 -i 31 -k AGT 
- -t 0.640000000 -s 0 -d -1 -p cbr -e 500 -c 2 -a 0 -i 31 -k AGT
h -t 0.640000000 -s 0 -d -1 -p cbr -e 500 -c 2 -a 0 -i 31 -k AGT
d -t 0.640000000 -s 0 -d -1 -p cbr -e 520 -c 2 -a 0 -i 26 -k RTR
+ -t 0.645000000 -s 0 -d -1 -p cbr -e 500 -c 2 -a 0 -i 32 -k AGT 
- -t 0.645000000 -s 0 -d -1 -p cbr -e 500 -c 2 -a 0 -i 32 -k AGT
h -t 0.645000000 -s 0 -d -1 -p cbr -e 500 -c 2 -a 0 -i 32 -k AGT
d -t 0.645000000 -s 0 -d -1 -p cbr -e 520 -c 2 -a 0 -i 27 -k RTR
+ -t 0.650000000 -s 0 -d -1 -p cbr -e 500 -c 2 -a 0 -i 33 -k AGT 
- -t 0.650000000 -s 0 -d -1 -p cbr -e 500 -c 2 -a 0 -i 33 -k AGT
h -t 0.650000000 -s 0 -d -1 -p cbr -e 500 -c 2 -a 0 -i 33 -k AGT
d -t 0.650000000 -s 0 -d -1 -p cbr -e 520 -c 2 -a 0 -i 28 -k RTR
+ -t 0.655000000 -s 0 -d -1 -p cbr -e 500 -c 2 -a 0 -i 34 -k AGT 
- -t 0.655000000 -s 0 -d -1 -p cbr -e 500 -c 2 -a 0 -i 34 -k AGT
h -t 0.655000000 -s 0 -d -1 -p cbr -e 500 -c 2 -a 0 -i 34 -k AGT
d -t 0.655000000 -s 0 -d -1 -p cbr -e 520 -c 2 -a 0 -i 29 -k RTR
+ -t 0.660000000 -s 0 -d -1 -p cbr -e 500 -c 2 -a 0 -i 35 -k AGT 
- -t 0.660000000 -s 0 -d -1 -p cbr -e 500 -c 2 -a 0 -i 35 -k AGT
h -t 0.660000000 -s 0 -d -1 -p cbr -e 500 -c 2 -a 0 -i 35 -k AGT
d -t 0.660000000 -s 0 -d -1 -p cbr -e 520 -c 2 -a 0 -i 30 -k RTR
+ -t 0.665000000 -s 0 -d -1 -p cbr -e 500 -c 2 -a 0 -i 36 -k AGT 
- -t 0.665000000 -s 0 -d -1 -p cbr -e 500 -c 2 -a 0 -i 36 -k AGT
h -t 0.665000000 -s 0 -d -1 -p cbr -e 500 -c 2 -a 0 -i 36 -k AGT
d -t 0.665000000 -s 0 -d -1 -p cbr -e 520 -c 2 -a 0 -i 31 -k RTR
+ -t 0.670000000 -s 0 -d -1 -p cbr -e 500 -c 2 -a 0 -i 37 -k AGT 
- -t 0.670000000 -s 0 -d -1 -p cbr -e 500 -c 2 -a 0 -i 37 -k AGT
h -t 0.670000000 -s 0 -d -1 -p cbr -e 500 -c 2 -a 0 -i 37 -k AGT
d -t 0.670000000 -s 0 -d -1 -p cbr -e 520 -c 2 -a 0 -i 32 -k RTR
+ -t 0.675000000 -s 0 -d -1 -p cbr -e 500 -c 2 -a 0 -i 38 -k AGT 
- -t 0.675000000 -s 0 -d -1 -p cbr -e 500 -c 2 -a 0 -i 38 -k AGT
h -t 0.675000000 -s 0 -d -1 -p cbr -e 500 -c 2 -a 0 -i 38 -k AGT
d -t 0.675000000 -s 0 -d -1 -p cbr -e 520 -c 2 -a 0 -i 33 -k RTR
+ -t 0.680000000 -s 0 -d -1 -p cbr -e 500 -c 2 -a 0 -i 39 -k AGT 
- -t 0.680000000 -s 0 -d -1 -p cbr -e 500 -c 2 -a 0 -i 39 -k AGT
h -t 0.680000000 -s 0 -d -1 -p cbr -e 500 -c 2 -a 0 -i 39 -k AGT
d -t 0.680000000 -s 0 -d -1 -p cbr -e 520 -c 2 -a 0 -i 34 -k RTR
+ -t 0.685000000 -s 0 -d -1 -p cbr -e 500 -c 2 -a 0 -i 40 -k AGT 
- -t 0.685000000 -s 0 -d -1 -p cbr -e 500 -c 2 -a 0 -i 40 -k AGT
h -t 0.685000000 -s 0 -d -1 -p cbr -e 500 -c 2 -a 0 -i 40 -k AGT
d -t 0.685000000 -s 0 -d -1 -p cbr -e 520 -c 2 -a 0 -i 35 -k RTR
+ -t 0.690000000 -s 0 -d -1 -p cbr -e 500 -c 2 -a 0 -i 41 -k AGT 
- -t 0.690000000 -s 0 -d -1 -p cbr -e 500 -c 2 -a 0 -i 41 -k AGT
h -t 0.690000000 -s 0 -d -1 -p cbr -e 500 -c 2 -a 0 -i 41 -k AGT
d -t 0.690000000 -s 0 -d -1 -p cbr -e 520 -c 2 -a 0 -i 36 -k RTR
+ -t 0.695000000 -s 0 -d -1 -p cbr -e 500 -c 2 -a 0 -i 42 -k AGT 
- -t 0.695000000 -s 0 -d -1 -p cbr -e 500 -c 2 -a 0 -i 42 -k AGT
h -t 0.695000000 -s 0 -d -1 -p cbr -e 500 -c 2 -a 0 -i 42 -k AGT
d -t 0.695000000 -s 0 -d -1 -p cbr -e 520 -c 2 -a 0 -i 37 -k RTR
+ -t 0.700000000 -s 0 -d -1 -p cbr -e 500 -c 2 -a 0 -i 43 -k AGT 
- -t 0.700000000 -s 0 -d -1 -p cbr -e 500 -c 2 -a 0 -i 43 -k AGT
h -t 0.700000000 -s 0 -d -1 -p cbr -e 500 -c 2 -a 0 -i 43 -k AGT
d -t 0.700000000 -s 0 -d -1 -p cbr -e 520 -c 2 -a 0 -i 38 -k RTR
+ -t 0.705000000 -s 0 -d -1 -p cbr -e 500 -c 2 -a 0 -i 44 -k AGT 
- -t 0.705000000 -s 0 -d -1 -p cbr -e 500 -c 2 -a 0 -i 44 -k AGT
h -t 0.705000000 -s 0 -d -1 -p cbr -e 500 -c 2 -a 0 -i 44 -k AGT
d -t 0.705000000 -s 0 -d -1 -p cbr -e 520 -c 2 -a 0 -i 39 -k RTR
+ -t 0.710000000 -s 0 -d -1 -p cbr -e 500 -c 2 -a 0 -i 45 -k AGT 
- -t 0.710000000 -s 0 -d -1 -p cbr -e 500 -c 2 -a 0 -i 45 -k AGT
h -t 0.710000000 -s 0 -d -1 -p cbr -e 500 -c 2 -a 0 -i 45 -k AGT
d -t 0.710000000 -s 0 -d -1 -p cbr -e 520 -c 2 -a 0 -i 40 -k RTR
+ -t 0.715000000 -s 0 -d -1 -p cbr -e 500 -c 2 -a 0 -i 46 -k AGT 
- -t 0.715000000 -s 0 -d -1 -p cbr -e 500 -c 2 -a 0 -i 46 -k AGT
h -t 0.715000000 -s 0 -d -1 -p cbr -e 500 -c 2 -a 0 -i 46 -k AGT
d -t 0.715000000 -s 0 -d -1 -p cbr -e 520 -c 2 -a 0 -i 41 -k RTR
+ -t 0.720000000 -s 0 -d -1 -p cbr -e 500 -c 2 -a 0 -i 47 -k AGT 
- -t 0.720000000 -s 0 -d -1 -p cbr -e 500 -c 2 -a 0 -i 47 -k AGT
h -t 0.720000000 -s 0 -d -1 -p cbr -e 500 -c 2 -a 0 -i 47 -k AGT
d -t 0.720000000 -s 0 -d -1 -p cbr -e 520 -c 2 -a 0 -i 42 -k RTR
+ -t 0.725000000 -s 0 -d -1 -p cbr -e 500 -c 2 -a 0 -i 48 -k AGT 
- -t 0.725000000 -s 0 -d -1 -p cbr -e 500 -c 2 -a 0 -i 48 -k AGT
h -t 0.725000000 -s 0 -d -1 -p cbr -e 500 -c 2 -a 0 -i 48 -k AGT
d -t 0.725000000 -s 0 -d -1 -p cbr -e 520 -c 2 -a 0 -i 43 -k RTR
+ -t 0.730000000 -s 0 -d -1 -p cbr -e 500 -c 2 -a 0 -i 49 -k AGT 
- -t 0.730000000 -s 0 -d -1 -p cbr -e 500 -c 2 -a 0 -i 49 -k AGT
h -t 0.730000000 -s 0 -d -1 -p cbr -e 500 -c 2 -a 0 -i 49 -k AGT
d -t 0.730000000 -s 0 -d -1 -p cbr -e 520 -c 2 -a 0 -i 44 -k RTR
+ -t 0.735000000 -s 0 -d -1 -p cbr -e 500 -c 2 -a 0 -i 50 -k AGT 
- -t 0.735000000 -s 0 -d -1 -p cbr -e 500 -c 2 -a 0 -i 50 -k AGT
h -t 0.735000000 -s 0 -d -1 -p cbr -e 500 -c 2 -a 0 -i 50 -k AGT
d -t 0.735000000 -s 0 -d -1 -p cbr -e 520 -c 2 -a 0 -i 45 -k RTR
+ -t 0.740000000 -s 0 -d -1 -p cbr -e 500 -c 2 -a 0 -i 51 -k AGT 
- -t 0.740000000 -s 0 -d -1 -p cbr -e 500 -c 2 -a 0 -i 51 -k AGT
h -t 0.740000000 -s 0 -d -1 -p cbr -e 500 -c 2 -a 0 -i 51 -k AGT
d -t 0.740000000 -s 0 -d -1 -p cbr -e 520 -c 2 -a 0 -i 46 -k RTR
+ -t 0.745000000 -s 0 -d -1 -p cbr -e 500 -c 2 -a 0 -i 52 -k AGT 
- -t 0.745000000 -s 0 -d -1 -p cbr -e 500 -c 2 -a 0 -i 52 -k AGT
h -t 0.745000000 -s 0 -d -1 -p cbr -e 500 -c 2 -a 0 -i 52 -k AGT
d -t 0.745000000 -s 0 -d -1 -p cbr -e 520 -c 2 -a 0 -i 47 -k RTR
+ -t 0.750000000 -s 0 -d -1 -p cbr -e 500 -c 2 -a 0 -i 53 -k AGT 
- -t 0.750000000 -s 0 -d -1 -p cbr -e 500 -c 2 -a 0 -i 53 -k AGT
h -t 0.750000000 -s 0 -d -1 -p cbr -e 500 -c 2 -a 0 -i 53 -k AGT
d -t 0.750000000 -s 0 -d -1 -p cbr -e 520 -c 2 -a 0 -i 48 -k RTR
+ -t 0.755000000 -s 0 -d -1 -p cbr -e 500 -c 2 -a 0 -i 54 -k AGT 
- -t 0.755000000 -s 0 -d -1 -p cbr -e 500 -c 2 -a 0 -i 54 -k AGT
h -t 0.755000000 -s 0 -d -1 -p cbr -e 500 -c 2 -a 0 -i 54 -k AGT
d -t 0.755000000 -s 0 -d -1 -p cbr -e 520 -c 2 -a 0 -i 49 -k RTR
+ -t 0.760000000 -s 0 -d -1 -p cbr -e 500 -c 2 -a 0 -i 55 -k AGT 
- -t 0.760000000 -s 0 -d -1 -p cbr -e 500 -c 2 -a 0 -i 55 -k AGT
h -t 0.760000000 -s 0 -d -1 -p cbr -e 500 -c 2 -a 0 -i 55 -k AGT
d -t 0.760000000 -s 0 -d -1 -p cbr -e 520 -c 2 -a 0 -i 50 -k RTR
+ -t 0.765000000 -s 0 -d -1 -p cbr -e 500 -c 2 -a 0 -i 56 -k AGT 
- -t 0.765000000 -s 0 -d -1 -p cbr -e 500 -c 2 -a 0 -i 56 -k AGT
h -t 0.765000000 -s 0 -d -1 -p cbr -e 500 -c 2 -a 0 -i 56 -k AGT
d -t 0.765000000 -s 0 -d -1 -p cbr -e 520 -c 2 -a 0 -i 51 -k RTR
+ -t 0.770000000 -s 0 -d -1 -p cbr -e 500 -c 2 -a 0 -i 57 -k AGT 
- -t 0.770000000 -s 0 -d -1 -p cbr -e 500 -c 2 -a 0 -i 57 -k AGT
h -t 0.770000000 -s 0 -d -1 -p cbr -e 500 -c 2 -a 0 -i 57 -k AGT
d -t 0.770000000 -s 0 -d -1 -p cbr -e 520 -c 2 -a 0 -i 52 -k RTR
+ -t 0.775000000 -s 0 -d -1 -p cbr -e 500 -c 2 -a 0 -i 58 -k AGT 
- -t 0.775000000 -s 0 -d -1 -p cbr -e 500 -c 2 -a 0 -i 58 -k AGT
h -t 0.775000000 -s 0 -d -1 -p cbr -e 500 -c 2 -a 0 -i 58 -k AGT
d -t 0.775000000 -s 0 -d -1 -p cbr -e 520 -c 2 -a 0 -i 53 -k RTR
+ -t 0.780000000 -s 0 -d -1 -p cbr -e 500 -c 2 -a 0 -i 59 -k AGT 
- -t 0.780000000 -s 0 -d -1 -p cbr -e 500 -c 2 -a 0 -i 59 -k AGT
h -t 0.780000000 -s 0 -d -1 -p cbr -e 500 -c 2 -a 0 -i 59 -k AGT
d -t 0.780000000 -s 0 -d -1 -p cbr -e 520 -c 2 -a 0 -i 54 -k RTR
+ -t 0.785000000 -s 0 -d -1 -p cbr -e 500 -c 2 -a 0 -i 60 -k AGT 
- -t 0.785000000 -s 0 -d -1 -p cbr -e 500 -c 2 -a 0 -i 60 -k AGT
h -t 0.785000000 -s 0 -d -1 -p cbr -e 500 -c 2 -a 0 -i 60 -k AGT
d -t 0.785000000 -s 0 -d -1 -p cbr -e 520 -c 2 -a 0 -i 55 -k RTR
+ -t 0.790000000 -s 0 -d -1 -p cbr -e 500 -c 2 -a 0 -i 61 -k AGT 
- -t 0.790000000 -s 0 -d -1 -p cbr -e 500 -c 2 -a 0 -i 61 -k AGT
h -t 0.790000000 -s 0 -d -1 -p cbr -e 500 -c 2 -a 0 -i 61 -k AGT
d -t 0.790000000 -s 0 -d -1 -p cbr -e 520 -c 2 -a 0 -i 56 -k RTR
+ -t 0.795000000 -s 0 -d -1 -p cbr -e 500 -c 2 -a 0 -i 62 -k AGT 
- -t 0.795000000 -s 0 -d -1 -p cbr -e 500 -c 2 -a 0 -i 62 -k AGT
h -t 0.795000000 -s 0 -d -1 -p cbr -e 500 -c 2 -a 0 -i 62 -k AGT
d -t 0.795000000 -s 0 -d -1 -p cbr -e 520 -c 2 -a 0 -i 57 -k RTR
+ -t 0.800000000 -s 0 -d -1 -p cbr -e 500 -c 2 -a 0 -i 63 -k AGT 
- -t 0.800000000 -s 0 -d -1 -p cbr -e 500 -c 2 -a 0 -i 63 -k AGT
h -t 0.800000000 -s 0 -d -1 -p cbr -e 500 -c 2 -a 0 -i 63 -k AGT
d -t 0.800000000 -s 0 -d -1 -p cbr -e 520 -c 2 -a 0 -i 58 -k RTR
+ -t 0.805000000 -s 0 -d -1 -p cbr -e 500 -c 2 -a 0 -i 64 -k AGT 
- -t 0.805000000 -s 0 -d -1 -p cbr -e 500 -c 2 -a 0 -i 64 -k AGT
h -t 0.805000000 -s 0 -d -1 -p cbr -e 500 -c 2 -a 0 -i 64 -k AGT
d -t 0.805000000 -s 0 -d -1 -p cbr -e 520 -c 2 -a 0 -i 59 -k RTR
+ -t 0.810000000 -s 0 -d -1 -p cbr -e 500 -c 2 -a 0 -i 65 -k AGT 
- -t 0.810000000 -s 0 -d -1 -p cbr -e 500 -c 2 -a 0 -i 65 -k AGT
h -t 0.810000000 -s 0 -d -1 -p cbr -e 500 -c 2 -a 0 -i 65 -k AGT
d -t 0.810000000 -s 0 -d -1 -p cbr -e 520 -c 2 -a 0 -i 60 -k RTR
+ -t 0.815000000 -s 0 -d -1 -p cbr -e 500 -c 2 -a 0 -i 66 -k AGT 
- -t 0.815000000 -s 0 -d -1 -p cbr -e 500 -c 2 -a 0 -i 66 -k AGT
h -t 0.815000000 -s 0 -d -1 -p cbr -e 500 -c 2 -a 0 -i 66 -k AGT
d -t 0.815000000 -s 0 -d -1 -p cbr -e 520 -c 2 -a 0 -i 61 -k RTR
+ -t 0.820000000 -s 0 -d -1 -p cbr -e 500 -c 2 -a 0 -i 67 -k AGT 
- -t 0.820000000 -s 0 -d -1 -p cbr -e 500 -c 2 -a 0 -i 67 -k AGT
h -t 0.820000000 -s 0 -d -1 -p cbr -e 500 -c 2 -a 0 -i 67 -k AGT
d -t 0.820000000 -s 0 -d -1 -p cbr -e 520 -c 2 -a 0 -i 62 -k RTR
+ -t 0.825000000 -s 0 -d -1 -p cbr -e 500 -c 2 -a 0 -i 68 -k AGT 
- -t 0.825000000 -s 0 -d -1 -p cbr -e 500 -c 2 -a 0 -i 68 -k AGT
h -t 0.825000000 -s 0 -d -1 -p cbr -e 500 -c 2 -a 0 -i 68 -k AGT
d -t 0.825000000 -s 0 -d -1 -p cbr -e 520 -c 2 -a 0 -i 63 -k RTR
+ -t 0.830000000 -s 0 -d -1 -p cbr -e 500 -c 2 -a 0 -i 69 -k AGT 
- -t 0.830000000 -s 0 -d -1 -p cbr -e 500 -c 2 -a 0 -i 69 -k AGT
h -t 0.830000000 -s 0 -d -1 -p cbr -e 500 -c 2 -a 0 -i 69 -k AGT
d -t 0.830000000 -s 0 -d -1 -p cbr -e 520 -c 2 -a 0 -i 64 -k RTR
+ -t 0.835000000 -s 0 -d -1 -p cbr -e 500 -c 2 -a 0 -i 70 -k AGT 
- -t 0.835000000 -s 0 -d -1 -p cbr -e 500 -c 2 -a 0 -i 70 -k AGT
h -t 0.835000000 -s 0 -d -1 -p cbr -e 500 -c 2 -a 0 -i 70 -k AGT
d -t 0.835000000 -s 0 -d -1 -p cbr -e 520 -c 2 -a 0 -i 65 -k RTR
+ -t 0.840000000 -s 0 -d -1 -p cbr -e 500 -c 2 -a 0 -i 71 -k AGT 
- -t 0.840000000 -s 0 -d -1 -p cbr -e 500 -c 2 -a 0 -i 71 -k AGT
h -t 0.840000000 -s 0 -d -1 -p cbr -e 500 -c 2 -a 0 -i 71 -k AGT
d -t 0.840000000 -s 0 -d -1 -p cbr -e 520 -c 2 -a 0 -i 66 -k RTR
+ -t 0.845000000 -s 0 -d -1 -p cbr -e 500 -c 2 -a 0 -i 72 -k AGT 
- -t 0.845000000 -s 0 -d -1 -p cbr -e 500 -c 2 -a 0 -i 72 -k AGT
h -t 0.845000000 -s 0 -d -1 -p cbr -e 500 -c 2 -a 0 -i 72 -k AGT
d -t 0.845000000 -s 0 -d -1 -p cbr -e 520 -c 2 -a 0 -i 67 -k RTR
+ -t 0.850000000 -s 0 -d -1 -p cbr -e 500 -c 2 -a 0 -i 73 -k AGT 
- -t 0.850000000 -s 0 -d -1 -p cbr -e 500 -c 2 -a 0 -i 73 -k AGT
h -t 0.850000000 -s 0 -d -1 -p cbr -e 500 -c 2 -a 0 -i 73 -k AGT
d -t 0.850000000 -s 0 -d -1 -p cbr -e 520 -c 2 -a 0 -i 68 -k RTR
+ -t 0.855000000 -s 0 -d -1 -p cbr -e 500 -c 2 -a 0 -i 74 -k AGT 
- -t 0.855000000 -s 0 -d -1 -p cbr -e 500 -c 2 -a 0 -i 74 -k AGT
h -t 0.855000000 -s 0 -d -1 -p cbr -e 500 -c 2 -a 0 -i 74 -k AGT
d -t 0.855000000 -s 0 -d -1 -p cbr -e 520 -c 2 -a 0 -i 69 -k RTR
+ -t 0.860000000 -s 0 -d -1 -p cbr -e 500 -c 2 -a 0 -i 75 -k AGT 
- -t 0.860000000 -s 0 -d -1 -p cbr -e 500 -c 2 -a 0 -i 75 -k AGT
h -t 0.860000000 -s 0 -d -1 -p cbr -e 500 -c 2 -a 0 -i 75 -k AGT
d -t 0.860000000 -s 0 -d -1 -p cbr -e 520 -c 2 -a 0 -i 70 -k RTR
+ -t 0.865000000 -s 0 -d -1 -p cbr -e 500 -c 2 -a 0 -i 76 -k AGT 
- -t 0.865000000 -s 0 -d -1 -p cbr -e 500 -c 2 -a 0 -i 76 -k AGT
h -t 0.865000000 -s 0 -d -1 -p cbr -e 500 -c 2 -a 0 -i 76 -k AGT
d -t 0.865000000 -s 0 -d -1 -p cbr -e 520 -c 2 -a 0 -i 71 -k RTR
+ -t 0.870000000 -s 0 -d -1 -p cbr -e 500 -c 2 -a 0 -i 77 -k AGT 
- -t 0.870000000 -s 0 -d -1 -p cbr -e 500 -c 2 -a 0 -i 77 -k AGT
h -t 0.870000000 -s 0 -d -1 -p cbr -e 500 -c 2 -a 0 -i 77 -k AGT
d -t 0.870000000 -s 0 -d -1 -p cbr -e 520 -c 2 -a 0 -i 72 -k RTR
+ -t 0.875000000 -s 0 -d -1 -p cbr -e 500 -c 2 -a 0 -i 78 -k AGT 
- -t 0.875000000 -s 0 -d -1 -p cbr -e 500 -c 2 -a 0 -i 78 -k AGT
h -t 0.875000000 -s 0 -d -1 -p cbr -e 500 -c 2 -a 0 -i 78 -k AGT
d -t 0.875000000 -s 0 -d -1 -p cbr -e 520 -c 2 -a 0 -i 73 -k RTR
+ -t 0.880000000 -s 0 -d -1 -p cbr -e 500 -c 2 -a 0 -i 79 -k AGT 
- -t 0.880000000 -s 0 -d -1 -p cbr -e 500 -c 2 -a 0 -i 79 -k AGT
h -t 0.880000000 -s 0 -d -1 -p cbr -e 500 -c 2 -a 0 -i 79 -k AGT
d -t 0.880000000 -s 0 -d -1 -p cbr -e 520 -c 2 -a 0 -i 74 -k RTR
+ -t 0.884094817 -s 4 -d -1 -p message -e 32 -c 2 -a 0 -i 80 -k RTR 
- -t 0.884094817 -s 4 -d -1 -p message -e 32 -c 2 -a 0 -i 80 -k RTR
h -t 0.884094817 -s 4 -d -1 -p message -e 32 -c 2 -a 0 -i 80 -k RTR
+ -t 0.885000000 -s 0 -d -1 -p cbr -e 500 -c 2 -a 0 -i 81 -k AGT 
- -t 0.885000000 -s 0 -d -1 -p cbr -e 500 -c 2 -a 0 -i 81 -k AGT
h -t 0.885000000 -s 0 -d -1 -p cbr -e 500 -c 2 -a 0 -i 81 -k AGT
d -t 0.885000000 -s 0 -d -1 -p cbr -e 520 -c 2 -a 0 -i 75 -k RTR
r -t 0.885234817 -s 3 -d -1 -p message -e 32 -c 2 -a 0 -i 80 -k RTR
r -t 0.885234817 -s 2 -d -1 -p message -e 32 -c 2 -a 0 -i 80 -k RTR
r -t 0.885234817 -s 1 -d -1 -p message -e 32 -c 2 -a 0 -i 80 -k RTR
r -t 0.885234817 -s 0 -d -1 -p message -e 32 -c 2 -a 0 -i 80 -k RTR
r -t 0.885234817 -s 5 -d -1 -p message -e 32 -c 2 -a 0 -i 80 -k RTR
+ -t 0.890000000 -s 0 -d -1 -p cbr -e 500 -c 2 -a 0 -i 82 -k AGT 
- -t 0.890000000 -s 0 -d -1 -p cbr -e 500 -c 2 -a 0 -i 82 -k AGT
h -t 0.890000000 -s 0 -d -1 -p cbr -e 500 -c 2 -a 0 -i 82 -k AGT
d -t 0.890000000 -s 0 -d -1 -p cbr -e 520 -c 2 -a 0 -i 76 -k RTR
+ -t 0.895000000 -s 0 -d -1 -p cbr -e 500 -c 2 -a 0 -i 83 -k AGT 
- -t 0.895000000 -s 0 -d -1 -p cbr -e 500 -c 2 -a 0 -i 83 -k AGT
h -t 0.895000000 -s 0 -d -1 -p cbr -e 500 -c 2 -a 0 -i 83 -k AGT
d -t 0.895000000 -s 0 -d -1 -p cbr -e 520 -c 2 -a 0 -i 77 -k RTR
+ -t 0.900000000 -s 0 -d -1 -p cbr -e 500 -c 2 -a 0 -i 84 -k AGT 
- -t 0.900000000 -s 0 -d -1 -p cbr -e 500 -c 2 -a 0 -i 84 -k AGT
h -t 0.900000000 -s 0 -d -1 -p cbr -e 500 -c 2 -a 0 -i 84 -k AGT
d -t 0.900000000 -s 0 -d -1 -p cbr -e 520 -c 2 -a 0 -i 78 -k RTR
+ -t 0.905000000 -s 0 -d -1 -p cbr -e 500 -c 2 -a 0 -i 85 -k AGT 
- -t 0.905000000 -s 0 -d -1 -p cbr -e 500 -c 2 -a 0 -i 85 -k AGT
h -t 0.905000000 -s 0 -d -1 -p cbr -e 500 -c 2 -a 0 -i 85 -k AGT
d -t 0.905000000 -s 0 -d -1 -p cbr -e 520 -c 2 -a 0 -i 79 -k RTR
+ -t 0.910000000 -s 0 -d -1 -p cbr -e 500 -c 2 -a 0 -i 86 -k AGT 
- -t 0.910000000 -s 0 -d -1 -p cbr -e 500 -c 2 -a 0 -i 86 -k AGT
h -t 0.910000000 -s 0 -d -1 -p cbr -e 500 -c 2 -a 0 -i 86 -k AGT
d -t 0.910000000 -s 0 -d -1 -p cbr -e 520 -c 2 -a 0 -i 81 -k RTR
+ -t 0.915000000 -s 0 -d -1 -p cbr -e 500 -c 2 -a 0 -i 87 -k AGT 
- -t 0.915000000 -s 0 -d -1 -p cbr -e 500 -c 2 -a 0 -i 87 -k AGT
h -t 0.915000000 -s 0 -d -1 -p cbr -e 500 -c 2 -a 0 -i 87 -k AGT
d -t 0.915000000 -s 0 -d -1 -p cbr -e 520 -c 2 -a 0 -i 82 -k RTR
+ -t 0.920000000 -s 0 -d -1 -p cbr -e 500 -c 2 -a 0 -i 88 -k AGT 
- -t 0.920000000 -s 0 -d -1 -p cbr -e 500 -c 2 -a 0 -i 88 -k AGT
h -t 0.920000000 -s 0 -d -1 -p cbr -e 500 -c 2 -a 0 -i 88 -k AGT
d -t 0.920000000 -s 0 -d -1 -p cbr -e 520 -c 2 -a 0 -i 83 -k RTR
+ -t 0.925000000 -s 0 -d -1 -p cbr -e 500 -c 2 -a 0 -i 89 -k AGT 
- -t 0.925000000 -s 0 -d -1 -p cbr -e 500 -c 2 -a 0 -i 89 -k AGT
h -t 0.925000000 -s 0 -d -1 -p cbr -e 500 -c 2 -a 0 -i 89 -k AGT
d -t 0.925000000 -s 0 -d -1 -p cbr -e 520 -c 2 -a 0 -i 84 -k RTR
+ -t 0.930000000 -s 0 -d -1 -p cbr -e 500 -c 2 -a 0 -i 90 -k AGT 
- -t 0.930000000 -s 0 -d -1 -p cbr -e 500 -c 2 -a 0 -i 90 -k AGT
h -t 0.930000000 -s 0 -d -1 -p cbr -e 500 -c 2 -a 0 -i 90 -k AGT
d -t 0.930000000 -s 0 -d -1 -p cbr -e 520 -c 2 -a 0 -i 85 -k RTR
+ -t 0.935000000 -s 0 -d -1 -p cbr -e 500 -c 2 -a 0 -i 91 -k AGT 
- -t 0.935000000 -s 0 -d -1 -p cbr -e 500 -c 2 -a 0 -i 91 -k AGT
h -t 0.935000000 -s 0 -d -1 -p cbr -e 500 -c 2 -a 0 -i 91 -k AGT
d -t 0.935000000 -s 0 -d -1 -p cbr -e 520 -c 2 -a 0 -i 86 -k RTR
+ -t 0.940000000 -s 0 -d -1 -p cbr -e 500 -c 2 -a 0 -i 92 -k AGT 
- -t 0.940000000 -s 0 -d -1 -p cbr -e 500 -c 2 -a 0 -i 92 -k AGT
h -t 0.940000000 -s 0 -d -1 -p cbr -e 500 -c 2 -a 0 -i 92 -k AGT
d -t 0.940000000 -s 0 -d -1 -p cbr -e 520 -c 2 -a 0 -i 87 -k RTR
+ -t 0.945000000 -s 0 -d -1 -p cbr -e 500 -c 2 -a 0 -i 93 -k AGT 
- -t 0.945000000 -s 0 -d -1 -p cbr -e 500 -c 2 -a 0 -i 93 -k AGT
h -t 0.945000000 -s 0 -d -1 -p cbr -e 500 -c 2 -a 0 -i 93 -k AGT
d -t 0.945000000 -s 0 -d -1 -p cbr -e 520 -c 2 -a 0 -i 88 -k RTR
+ -t 0.950000000 -s 0 -d -1 -p cbr -e 500 -c 2 -a 0 -i 94 -k AGT 
- -t 0.950000000 -s 0 -d -1 -p cbr -e 500 -c 2 -a 0 -i 94 -k AGT
h -t 0.950000000 -s 0 -d -1 -p cbr -e 500 -c 2 -a 0 -i 94 -k AGT
d -t 0.950000000 -s 0 -d -1 -p cbr -e 520 -c 2 -a 0 -i 89 -k RTR
+ -t 0.955000000 -s 0 -d -1 -p cbr -e 500 -c 2 -a 0 -i 95 -k AGT 
- -t 0.955000000 -s 0 -d -1 -p cbr -e 500 -c 2 -a 0 -i 95 -k AGT
h -t 0.955000000 -s 0 -d -1 -p cbr -e 500 -c 2 -a 0 -i 95 -k AGT
d -t 0.955000000 -s 0 -d -1 -p cbr -e 520 -c 2 -a 0 -i 90 -k RTR
+ -t 0.960000000 -s 0 -d -1 -p cbr -e 500 -c 2 -a 0 -i 96 -k AGT 
- -t 0.960000000 -s 0 -d -1 -p cbr -e 500 -c 2 -a 0 -i 96 -k AGT
h -t 0.960000000 -s 0 -d -1 -p cbr -e 500 -c 2 -a 0 -i 96 -k AGT
d -t 0.960000000 -s 0 -d -1 -p cbr -e 520 -c 2 -a 0 -i 91 -k RTR
+ -t 0.965000000 -s 0 -d -1 -p cbr -e 500 -c 2 -a 0 -i 97 -k AGT 
- -t 0.965000000 -s 0 -d -1 -p cbr -e 500 -c 2 -a 0 -i 97 -k AGT
h -t 0.965000000 -s 0 -d -1 -p cbr -e 500 -c 2 -a 0 -i 97 -k AGT
d -t 0.965000000 -s 0 -d -1 -p cbr -e 520 -c 2 -a 0 -i 92 -k RTR
+ -t 0.970000000 -s 0 -d -1 -p cbr -e 500 -c 2 -a 0 -i 98 -k AGT 
- -t 0.970000000 -s 0 -d -1 -p cbr -e 500 -c 2 -a 0 -i 98 -k AGT
h -t 0.970000000 -s 0 -d -1 -p cbr -e 500 -c 2 -a 0 -i 98 -k AGT
d -t 0.970000000 -s 0 -d -1 -p cbr -e 520 -c 2 -a 0 -i 93 -k RTR
+ -t 0.975000000 -s 0 -d -1 -p cbr -e 500 -c 2 -a 0 -i 99 -k AGT 
- -t 0.975000000 -s 0 -d -1 -p cbr -e 500 -c 2 -a 0 -i 99 -k AGT
h -t 0.975000000 -s 0 -d -1 -p cbr -e 500 -c 2 -a 0 -i 99 -k AGT
d -t 0.975000000 -s 0 -d -1 -p cbr -e 520 -c 2 -a 0 -i 94 -k RTR
+ -t 0.980000000 -s 0 -d -1 -p cbr -e 500 -c 2 -a 0 -i 100 -k AGT 
- -t 0.980000000 -s 0 -d -1 -p cbr -e 500 -c 2 -a 0 -i 100 -k AGT
h -t 0.980000000 -s 0 -d -1 -p cbr -e 500 -c 2 -a 0 -i 100 -k AGT
d -t 0.980000000 -s 0 -d -1 -p cbr -e 520 -c 2 -a 0 -i 95 -k RTR
+ -t 0.985000000 -s 0 -d -1 -p cbr -e 500 -c 2 -a 0 -i 101 -k AGT 
- -t 0.985000000 -s 0 -d -1 -p cbr -e 500 -c 2 -a 0 -i 101 -k AGT
h -t 0.985000000 -s 0 -d -1 -p cbr -e 500 -c 2 -a 0 -i 101 -k AGT
d -t 0.985000000 -s 0 -d -1 -p cbr -e 520 -c 2 -a 0 -i 96 -k RTR
+ -t 0.990000000 -s 0 -d -1 -p cbr -e 500 -c 2 -a 0 -i 102 -k AGT 
- -t 0.990000000 -s 0 -d -1 -p cbr -e 500 -c 2 -a 0 -i 102 -k AGT
h -t 0.990000000 -s 0 -d -1 -p cbr -e 500 -c 2 -a 0 -i 102 -k AGT
d -t 0.990000000 -s 0 -d -1 -p cbr -e 520 -c 2 -a 0 -i 97 -k RTR
+ -t 0.995000000 -s 0 -d -1 -p cbr -e 500 -c 2 -a 0 -i 103 -k AGT 
- -t 0.995000000 -s 0 -d -1 -p cbr -e 500 -c 2 -a 0 -i 103 -k AGT
h -t 0.995000000 -s 0 -d -1 -p cbr -e 500 -c 2 -a 0 -i 103 -k AGT
d -t 0.995000000 -s 0 -d -1 -p cbr -e 520 -c 2 -a 0 -i 98 -k RTR
+ -t 1.000000000 -s 0 -d -1 -p cbr -e 500 -c 2 -a 0 -i 104 -k AGT 
- -t 1.000000000 -s 0 -d -1 -p cbr -e 500 -c 2 -a 0 -i 104 -k AGT
h -t 1.000000000 -s 0 -d -1 -p cbr -e 500 -c 2 -a 0 -i 104 -k AGT
d -t 1.000000000 -s 0 -d -1 -p cbr -e 520 -c 2 -a 0 -i 99 -k RTR
+ -t 1.005000000 -s 0 -d -1 -p cbr -e 500 -c 2 -a 0 -i 105 -k AGT 
- -t 1.005000000 -s 0 -d -1 -p cbr -e 500 -c 2 -a 0 -i 105 -k AGT
h -t 1.005000000 -s 0 -d -1 -p cbr -e 500 -c 2 -a 0 -i 105 -k AGT
d -t 1.005000000 -s 0 -d -1 -p cbr -e 520 -c 2 -a 0 -i 100 -k RTR
+ -t 1.010000000 -s 0 -d -1 -p cbr -e 500 -c 2 -a 0 -i 106 -k AGT 
- -t 1.010000000 -s 0 -d -1 -p cbr -e 500 -c 2 -a 0 -i 106 -k AGT
h -t 1.010000000 -s 0 -d -1 -p cbr -e 500 -c 2 -a 0 -i 106 -k AGT
d -t 1.010000000 -s 0 -d -1 -p cbr -e 520 -c 2 -a 0 -i 101 -k RTR
+ -t 1.015000000 -s 0 -d -1 -p cbr -e 500 -c 2 -a 0 -i 107 -k AGT 
- -t 1.015000000 -s 0 -d -1 -p cbr -e 500 -c 2 -a 0 -i 107 -k AGT
h -t 1.015000000 -s 0 -d -1 -p cbr -e 500 -c 2 -a 0 -i 107 -k AGT
d -t 1.015000000 -s 0 -d -1 -p cbr -e 520 -c 2 -a 0 -i 102 -k RTR
+ -t 1.020000000 -s 0 -d -1 -p cbr -e 500 -c 2 -a 0 -i 108 -k AGT 