M 0.00000 0 (0.00, 0.00, 0.00), (100.00, 100.00), 0.00
M 0.00000 1 (0.00, 0.00, 0.00), (200.00, 200.00), 0.00
M 0.00000 2 (0.00, 0.00, 0.00), (300.00, 200.00), 0.00
M 0.00000 3 (0.00, 0.00, 0.00), (400.00, 300.00), 0.00
M 0.00000 4 (0.00, 0.00, 0.00), (500.00, 300.00), 0.00
M 0.00000 5 (0.00, 0.00, 0.00), (600.00, 400.00), 0.00
s 0.003808772 _0_ RTR  --- 0 message 32 [0 0 0 0] ------- [0:255 -1:255 32 0] 
r 0.004868772 _1_ RTR  --- 0 message 32 [0 ffffffff 0 800] ------- [0:255 -1:255 32 0] 
r 0.004868772 _2_ RTR  --- 0 message 32 [0 ffffffff 0 800] ------- [0:255 -1:255 32 0] 
r 0.004868772 _3_ RTR  --- 0 message 32 [0 ffffffff 0 800] ------- [0:255 -1:255 32 0] 
r 0.004868772 _4_ RTR  --- 0 message 32 [0 ffffffff 0 800] ------- [0:255 -1:255 32 0] 
r 0.004868772 _5_ RTR  --- 0 message 32 [0 ffffffff 0 800] ------- [0:255 -1:255 32 0] 
s 0.031500112 _2_ RTR  --- 1 message 32 [0 0 0 0] ------- [2:255 -1:255 32 0] 
r 0.032360112 _1_ RTR  --- 1 message 32 [0 ffffffff 2 800] ------- [2:255 -1:255 32 0] 
r 0.032360112 _0_ RTR  --- 1 message 32 [0 ffffffff 2 800] ------- [2:255 -1:255 32 0] 
r 0.032360112 _3_ RTR  --- 1 message 32 [0 ffffffff 2 800] ------- [2:255 -1:255 32 0] 
r 0.032360112 _4_ RTR  --- 1 message 32 [0 ffffffff 2 800] ------- [2:255 -1:255 32 0] 
r 0.032360112 _5_ RTR  --- 1 message 32 [0 ffffffff 2 800] ------- [2:255 -1:255 32 0] 
s 0.182646019 _3_ RTR  --- 2 message 32 [0 0 0 0] ------- [3:255 -1:255 32 0] 
r 0.183706019 _2_ RTR  --- 2 message 32 [0 ffffffff 3 800] ------- [3:255 -1:255 32 0] 
r 0.183706019 _1_ RTR  --- 2 message 32 [0 ffffffff 3 800] ------- [3:255 -1:255 32 0] 
r 0.183706019 _0_ RTR  --- 2 message 32 [0 ffffffff 3 800] ------- [3:255 -1:255 32 0] 
r 0.183706019 _4_ RTR  --- 2 message 32 [0 ffffffff 3 800] ------- [3:255 -1:255 32 0] 
r 0.183706019 _5_ RTR  --- 2 message 32 [0 ffffffff 3 800] ------- [3:255 -1:255 32 0] 
s 0.500000000 _0_ AGT  --- 3 cbr 500 [0 0 0 0] ------- [0:0 5:0 32 0] [0] 0 0
r 0.500000000 _0_ RTR  --- 3 cbr 500 [0 0 0 0] ------- [0:0 5:0 32 0] [0] 0 0
s 0.505000000 _0_ AGT  --- 4 cbr 500 [0 0 0 0] ------- [0:0 5:0 32 0] [1] 0 0
r 0.505000000 _0_ RTR  --- 4 cbr 500 [0 0 0 0] ------- [0:0 5:0 32 0] [1] 0 0
s 0.510000000 _0_ AGT  --- 5 cbr 500 [0 0 0 0] ------- [0:0 5:0 32 0] [2] 0 0
r 0.510000000 _0_ RTR  --- 5 cbr 500 [0 0 0 0] ------- [0:0 5:0 32 0] [2] 0 0
s 0.515000000 _0_ AGT  --- 6 cbr 500 [0 0 0 0] ------- [0:0 5:0 32 0] [3] 0 0
r 0.515000000 _0_ RTR  --- 6 cbr 500 [0 0 0 0] ------- [0:0 5:0 32 0] [3] 0 0
s 0.520000000 _0_ AGT  --- 7 cbr 500 [0 0 0 0] ------- [0:0 5:0 32 0] [4] 0 0
r 0.520000000 _0_ RTR  --- 7 cbr 500 [0 0 0 0] ------- [0:0 5:0 32 0] [4] 0 0
s 0.525000000 _0_ AGT  --- 8 cbr 500 [0 0 0 0] ------- [0:0 5:0 32 0] [5] 0 0
r 0.525000000 _0_ RTR  --- 8 cbr 500 [0 0 0 0] ------- [0:0 5:0 32 0] [5] 0 0
D 0.525000000 _0_ RTR  IFQ 3 cbr 520 [0 0 0 0] ------- [0:0 5:0 32 0] [0] 0 0
s 0.530000000 _0_ AGT  --- 9 cbr 500 [0 0 0 0] ------- [0:0 5:0 32 0] [6] 0 0
r 0.530000000 _0_ RTR  --- 9 cbr 500 [0 0 0 0] ------- [0:0 5:0 32 0] [6] 0 0
D 0.530000000 _0_ RTR  IFQ 4 cbr 520 [0 0 0 0] ------- [0:0 5:0 32 0] [1] 0 0
s 0.535000000 _0_ AGT  --- 10 cbr 500 [0 0 0 0] ------- [0:0 5:0 32 0] [7] 0 0
r 0.535000000 _0_ RTR  --- 10 cbr 500 [0 0 0 0] ------- [0:0 5:0 32 0] [7] 0 0
D 0.535000000 _0_ RTR  IFQ 5 cbr 520 [0 0 0 0] ------- [0:0 5:0 32 0] [2] 0 0
s 0.540000000 _0_ AGT  --- 11 cbr 500 [0 0 0 0] ------- [0:0 5:0 32 0] [8] 0 0
r 0.540000000 _0_ RTR  --- 11 cbr 500 [0 0 0 0] ------- [0:0 5:0 32 0] [8] 0 0
D 0.540000000 _0_ RTR  IFQ 6 cbr 520 [0 0 0 0] ------- [0:0 5:0 32 0] [3] 0 0
s 0.545000000 _0_ AGT  --- 12 cbr 500 [0 0 0 0] ------- [0:0 5:0 32 0] [9] 0 0
r 0.545000000 _0_ RTR  --- 12 cbr 500 [0 0 0 0] ------- [0:0 5:0 32 0] [9] 0 0
D 0.545000000 _0_ RTR  IFQ 7 cbr 520 [0 0 0 0] ------- [0:0 5:0 32 0] [4] 0 0
s 0.550000000 _0_ AGT  --- 13 cbr 500 [0 0 0 0] ------- [0:0 5:0 32 0] [10] 0 0
r 0.550000000 _0_ RTR  --- 13 cbr 500 [0 0 0 0] ------- [0:0 5:0 32 0] [10] 0 0
D 0.550000000 _0_ RTR  IFQ 8 cbr 520 [0 0 0 0] ------- [0:0 5:0 32 0] [5] 0 0
s 0.555000000 _0_ AGT  --- 14 cbr 500 [0 0 0 0] ------- [0:0 5:0 32 0] [11] 0 0
r 0.555000000 _0_ RTR  --- 14 cbr 500 [0 0 0 0] ------- [0:0 5:0 32 0] [11] 0 0
D 0.555000000 _0_ RTR  IFQ 9 cbr 520 [0 0 0 0] ------- [0:0 5:0 32 0] [6] 0 0
s 0.560000000 _0_ AGT  --- 15 cbr 500 [0 0 0 0] ------- [0:0 5:0 32 0] [12] 0 0
r 0.560000000 _0_ RTR  --- 15 cbr 500 [0 0 0 0] ------- [0:0 5:0 32 0] [12] 0 0
D 0.560000000 _0_ RTR  IFQ 10 cbr 520 [0 0 0 0] ------- [0:0 5:0 32 0] [7] 0 0
s 0.565000000 _0_ AGT  --- 16 cbr 500 [0 0 0 0] ------- [0:0 5:0 32 0] [13] 0 0
r 0.565000000 _0_ RTR  --- 16 cbr 500 [0 0 0 0] ------- [0:0 5:0 32 0] [13] 0 0
D 0.565000000 _0_ RTR  IFQ 11 cbr 520 [0 0 0 0] ------- [0:0 5:0 32 0] [8] 0 0
s 0.570000000 _0_ AGT  --- 17 cbr 500 [0 0 0 0] ------- [0:0 5:0 32 0] [14] 0 0
r 0.570000000 _0_ RTR  --- 17 cbr 500 [0 0 0 0] ------- [0:0 5:0 32 0] [14] 0 0
D 0.570000000 _0_ RTR  IFQ 12 cbr 520 [0 0 0 0] ------- [0:0 5:0 32 0] [9] 0 0
s 0.575000000 _0_ AGT  --- 18 cbr 500 [0 0 0 0] ------- [0:0 5:0 32 0] [15] 0 0
r 0.575000000 _0_ RTR  --- 18 cbr 500 [0 0 0 0] ------- [0:0 5:0 32 0] [15] 0 0
D 0.575000000 _0_ RTR  IFQ 13 cbr 520 [0 0 0 0] ------- [0:0 5:0 32 0] [10] 0 0
s 0.580000000 _0_ AGT  --- 19 cbr 500 [0 0 0 0] ------- [0:0 5:0 32 0] [16] 0 0
r 0.580000000 _0_ RTR  --- 19 cbr 500 [0 0 0 0] ------- [0:0 5:0 32 0] [16] 0 0
D 0.580000000 _0_ RTR  IFQ 14 cbr 520 [0 0 0 0] ------- [0:0 5:0 32 0] [11] 0 0
s 0.585000000 _0_ AGT  --- 20 cbr 500 [0 0 0 0] ------- [0:0 5:0 32 0] [17] 0 0
r 0.585000000 _0_ RTR  --- 20 cbr 500 [0 0 0 0] ------- [0:0 5:0 32 0] [17] 0 0
D 0.585000000 _0_ RTR  IFQ 15 cbr 520 [0 0 0 0] ------- [0:0 5:0 32 0] [12] 0 0
s 0.590000000 _0_ AGT  --- 21 cbr 500 [0 0 0 0] ------- [0:0 5:0 32 0] [18] 0 0
r 0.590000000 _0_ RTR  --- 21 cbr 500 [0 0 0 0] ------- [0:0 5:0 32 0] [18] 0 0
D 0.590000000 _0_ RTR  IFQ 16 cbr 520 [0 0 0 0] ------- [0:0 5:0 32 0] [13] 0 0
s 0.595000000 _0_ AGT  --- 22 cbr 500 [0 0 0 0] ------- [0:0 5:0 32 0] [19] 0 0
r 0.595000000 _0_ RTR  --- 22 cbr 500 [0 0 0 0] ------- [0:0 5:0 32 0] [19] 0 0
D 0.595000000 _0_ RTR  IFQ 17 cbr 520 [0 0 0 0] ------- [0:0 5:0 32 0] [14] 0 0
s 0.600000000 _0_ AGT  --- 23 cbr 500 [0 0 0 0] ------- [0:0 5:0 32 0] [20] 0 0
r 0.600000000 _0_ RTR  --- 23 cbr 500 [0 0 0 0] ------- [0:0 5:0 32 0] [20] 0 0
D 0.600000000 _0_ RTR  IFQ 18 cbr 520 [0 0 0 0] ------- [0:0 5:0 32 0] [15] 0 0
s 0.605000000 _0_ AGT  --- 24 cbr 500 [0 0 0 0] ------- [0:0 5:0 32 0] [21] 0 0
r 0.605000000 _0_ RTR  --- 24 cbr 500 [0 0 0 0] ------- [0:0 5:0 32 0] [21] 0 0
D 0.605000000 _0_ RTR  IFQ 19 cbr 520 [0 0 0 0] ------- [0:0 5:0 32 0] [16] 0 0
s 0.610000000 _0_ AGT  --- 25 cbr 500 [0 0 0 0] ------- [0:0 5:0 32 0] [22] 0 0
r 0.610000000 _0_ RTR  --- 25 cbr 500 [0 0 0 0] ------- [0:0 5:0 32 0] [22] 0 0
D 0.610000000 _0_ RTR  IFQ 20 cbr 520 [0 0 0 0] ------- [0:0 5:0 32 0] [17] 0 0
s 0.615000000 _0_ AGT  --- 26 cbr 500 [0 0 0 0] ------- [0:0 5:0 32 0] [23] 0 0
r 0.615000000 _0_ RTR  --- 26 cbr 500 [0 0 0 0] ------- [0:0 5:0 32 0] [23] 0 0
D 0.615000000 _0_ RTR  IFQ 21 cbr 520 [0 0 0 0] ------- [0:0 5:0 32 0] [18] 0 0
s 0.620000000 _0_ AGT  --- 27 cbr 500 [0 0 0 0] ------- [0:0 5:0 32 0] [24] 0 0
r 0.620000000 _0_ RTR  --- 27 cbr 500 [0 0 0 0] ------- [0:0 5:0 32 0] [24] 0 0
D 0.620000000 _0_ RTR  IFQ 22 cbr 520 [0 0 0 0] ------- [0:0 5:0 32 0] [19] 0 0
s 0.625000000 _0_ AGT  --- 28 cbr 500 [0 0 0 0] ------- [0:0 5:0 32 0] [25] 0 0
r 0.625000000 _0_ RTR  --- 28 cbr 500 [0 0 0 0] ------- [0:0 5:0 32 0] [25] 0 0
D 0.625000000 _0_ RTR  IFQ 23 cbr 520 [0 0 0 0] ------- [0:0 5:0 32 0] [20] 0 0
s 0.630000000 _0_ AGT  --- 29 cbr 500 [0 0 0 0] ------- [0:0 5:0 32 0] [26] 0 0
r 0.630000000 _0_ RTR  --- 29 cbr 500 [0 0 0 0] ------- [0:0 5:0 32 0] [26] 0 0
D 0.630000000 _0_ RTR  IFQ 24 cbr 520 [0 0 0 0] ------- [0:0 5:0 32 0] [21] 0 0
s 0.635000000 _0_ AGT  --- 30 cbr 500 [0 0 0 0] ------- [0:0 5:0 32 0] [27] 0 0
r 0.635000000 _0_ RTR  --- 30 cbr 500 [0 0 0 0] ------- [0:0 5:0 32 0] [27] 0 0
D 0.635000000 _0_ RTR  IFQ 25 cbr 520 [0 0 0 0] ------- [0:0 5:0 32 0] [22] 0 0
s 0.640000000 _0_ AGT  --- 31 cbr 500 [0 0 0 0] ------- [0:0 5:0 32 0] [28] 0 0
r 0.640000000 _0_ RTR  --- 31 cbr 500 [0 0 0 0] ------- [0:0 5:0 32 0] [28] 0 0
D 0.640000000 _0_ RTR  IFQ 26 cbr 520 [0 0 0 0] ------- [0:0 5:0 32 0] [23] 0 0
s 0.645000000 _0_ AGT  --- 32 cbr 500 [0 0 0 0] ------- [0:0 5:0 32 0] [29] 0 0
r 0.645000000 _0_ RTR  --- 32 cbr 500 [0 0 0 0] ------- [0:0 5:0 32 0] [29] 0 0
D 0.645000000 _0_ RTR  IFQ 27 cbr 520 [0 0 0 0] ------- [0:0 5:0 32 0] [24] 0 0
s 0.650000000 _0_ AGT  --- 33 cbr 500 [0 0 0 0] ------- [0:0 5:0 32 0] [30] 0 0
r 0.650000000 _0_ RTR  --- 33 cbr 500 [0 0 0 0] ------- [0:0 5:0 32 0] [30] 0 0
D 0.650000000 _0_ RTR  IFQ 28 cbr 520 [0 0 0 0] ------- [0:0 5:0 32 0] [25] 0 0
s 0.655000000 _0_ AGT  --- 34 cbr 500 [0 0 0 0] ------- [0:0 5:0 32 0] [31] 0 0
r 0.655000000 _0_ RTR  --- 34 cbr 500 [0 0 0 0] ------- [0:0 5:0 32 0] [31] 0 0
D 0.655000000 _0_ RTR  IFQ 29 cbr 520 [0 0 0 0] ------- [0:0 5:0 32 0] [26] 0 0
s 0.660000000 _0_ AGT  --- 35 cbr 500 [0 0 0 0] ------- [0:0 5:0 32 0] [32] 0 0
r 0.660000000 _0_ RTR  --- 35 cbr 500 [0 0 0 0] ------- [0:0 5:0 32 0] [32] 0 0
D 0.660000000 _0_ RTR  IFQ 30 cbr 520 [0 0 0 0] ------- [0:0 5:0 32 0] [27] 0 0
s 0.665000000 _0_ AGT  --- 36 cbr 500 [0 0 0 0] ------- [0:0 5:0 32 0] [33] 0 0
r 0.665000000 _0_ RTR  --- 36 cbr 500 [0 0 0 0] ------- [0:0 5:0 32 0] [33] 0 0
D 0.665000000 _0_ RTR  IFQ 31 cbr 520 [0 0 0 0] ------- [0:0 5:0 32 0] [28] 0 0
s 0.670000000 _0_ AGT  --- 37 cbr 500 [0 0 0 0] ------- [0:0 5:0 32 0] [34] 0 0
r 0.670000000 _0_ RTR  --- 37 cbr 500 [0 0 0 0] ------- [0:0 5:0 32 0] [34] 0 0
D 0.670000000 _0_ RTR  IFQ 32 cbr 520 [0 0 0 0] ------- [0:0 5:0 32 0] [29] 0 0
s 0.675000000 _0_ AGT  --- 38 cbr 500 [0 0 0 0] ------- [0:0 5:0 32 0] [35] 0 0
r 0.675000000 _0_ RTR  --- 38 cbr 500 [0 0 0 0] ------- [0:0 5:0 32 0] [35] 0 0
D 0.675000000 _0_ RTR  IFQ 33 cbr 520 [0 0 0 0] ------- [0:0 5:0 32 0] [30] 0 0
s 0.680000000 _0_ AGT  --- 39 cbr 500 [0 0 0 0] ------- [0:0 5:0 32 0] [36] 0 0
r 0.680000000 _0_ RTR  --- 39 cbr 500 [0 0 0 0] ------- [0:0 5:0 32 0] [36] 0 0
D 0.680000000 _0_ RTR  IFQ 34 cbr 520 [0 0 0 0] ------- [0:0 5:0 32 0] [31] 0 0
s 0.685000000 _0_ AGT  --- 40 cbr 500 [0 0 0 0] ------- [0:0 5:0 32 0] [37] 0 0
r 0.685000000 _0_ RTR  --- 40 cbr 500 [0 0 0 0] ------- [0:0 5:0 32 0] [37] 0 0
D 0.685000000 _0_ RTR  IFQ 35 cbr 520 [0 0 0 0] ------- [0:0 5:0 32 0] [32] 0 0
s 0.690000000 _0_ AGT  --- 41 cbr 500 [0 0 0 0] ------- [0:0 5:0 32 0] [38] 0 0
r 0.690000000 _0_ RTR  --- 41 cbr 500 [0 0 0 0] ------- [0:0 5:0 32 0] [38] 0 0
D 0.690000000 _0_ RTR  IFQ 36 cbr 520 [0 0 0 0] ------- [0:0 5:0 32 0] [33] 0 0
s 0.695000000 _0_ AGT  --- 42 cbr 500 [0 0 0 0] ------- [0:0 5:0 32 0] [39] 0 0
r 0.695000000 _0_ RTR  --- 42 cbr 500 [0 0 0 0] ------- [0:0 5:0 32 0] [39] 0 0
D 0.695000000 _0_ RTR  IFQ 37 cbr 520 [0 0 0 0] ------- [0:0 5:0 32 0] [34] 0 0
s 0.700000000 _0_ AGT  --- 43 cbr 500 [0 0 0 0] ------- [0:0 5:0 32 0] [40] 0 0
r 0.700000000 _0_ RTR  --- 43 cbr 500 [0 0 0 0] ------- [0:0 5:0 32 0] [40] 0 0
D 0.700000000 _0_ RTR  IFQ 38 cbr 520 [0 0 0 0] ------- [0:0 5:0 32 0] [35] 0 0
s 0.705000000 _0_ AGT  --- 44 cbr 500 [0 0 0 0] ------- [0:0 5:0 32 0] [41] 0 0
r 0.705000000 _0_ RTR  --- 44 cbr 500 [0 0 0 0] ------- [0:0 5:0 32 0] [41] 0 0
D 0.705000000 _0_ RTR  IFQ 39 cbr 520 [0 0 0 0] ------- [0:0 5:0 32 0] [36] 0 0
s 0.710000000 _0_ AGT  --- 45 cbr 500 [0 0 0 0] ------- [0:0 5:0 32 0] [42] 0 0
r 0.710000000 _0_ RTR  --- 45 cbr 500 [0 0 0 0] ------- [0:0 5:0 32 0] [42] 0 0
D 0.710000000 _0_ RTR  IFQ 40 cbr 520 [0 0 0 0] ------- [0:0 5:0 32 0] [37] 0 0
s 0.715000000 _0_ AGT  --- 46 cbr 500 [0 0 0 0] ------- [0:0 5:0 32 0] [43] 0 0
r 0.715000000 _0_ RTR  --- 46 cbr 500 [0 0 0 0] ------- [0:0 5:0 32 0] [43] 0 0
D 0.715000000 _0_ RTR  IFQ 41 cbr 520 [0 0 0 0] ------- [0:0 5:0 32 0] [38] 0 0
s 0.720000000 _0_ AGT  --- 47 cbr 500 [0 0 0 0] ------- [0:0 5:0 32 0] [44] 0 0
r 0.720000000 _0_ RTR  --- 47 cbr 500 [0 0 0 0] ------- [0:0 5:0 32 0] [44] 0 0
D 0.720000000 _0_ RTR  IFQ 42 cbr 520 [0 0 0 0] ------- [0:0 5:0 32 0] [39] 0 0
s 0.725000000 _0_ AGT  --- 48 cbr 500 [0 0 0 0] ------- [0:0 5:0 32 0] [45] 0 0
r 0.725000000 _0_ RTR  --- 48 cbr 500 [0 0 0 0] ------- [0:0 5:0 32 0] [45] 0 0
D 0.725000000 _0_ RTR  IFQ 43 cbr 520 [0 0 0 0] ------- [0:0 5:0 32 0] [40] 0 0
s 0.730000000 _0_ AGT  --- 49 cbr 500 [0 0 0 0] ------- [0:0 5:0 32 0] [46] 0 0
r 0.730000000 _0_ RTR  --- 49 cbr 500 [0 0 0 0] ------- [0:0 5:0 32 0] [46] 0 0
D 0.730000000 _0_ RTR  IFQ 44 cbr 520 [0 0 0 0] ------- [0:0 5:0 32 0] [41] 0 0
s 0.735000000 _0_ AGT  --- 50 cbr 500 [0 0 0 0] ------- [0:0 5:0 32 0] [47] 0 0
r 0.735000000 _0_ RTR  --- 50 cbr 500 [0 0 0 0] ------- [0:0 5:0 32 0] [47] 0 0
D 0.735000000 _0_ RTR  IFQ 45 cbr 520 [0 0 0 0] ------- [0:0 5:0 32 0] [42] 0 0
s 0.740000000 _0_ AGT  --- 51 cbr 500 [0 0 0 0] ------- [0:0 5:0 32 0] [48] 0 0
r 0.740000000 _0_ RTR  --- 51 cbr 500 [0 0 0 0] ------- [0:0 5:0 32 0] [48] 0 0
D 0.740000000 _0_ RTR  IFQ 46 cbr 520 [0 0 0 0] ------- [0:0 5:0 32 0] [43] 0 0
s 0.745000000 _0_ AGT  --- 52 cbr 500 [0 0 0 0] ------- [0:0 5:0 32 0] [49] 0 0
r 0.745000000 _0_ RTR  --- 52 cbr 500 [0 0 0 0] ------- [0:0 5:0 32 0] [49] 0 0
D 0.745000000 _0_ RTR  IFQ 47 cbr 520 [0 0 0 0] ------- [0:0 5:0 32 0] [44] 0 0
s 0.750000000 _0_ AGT  --- 53 cbr 500 [0 0 0 0] ------- [0:0 5:0 32 0] [50] 0 0
r 0.750000000 _0_ RTR  --- 53 cbr 500 [0 0 0 0] ------- [0:0 5:0 32 0] [50] 0 0
D 0.750000000 _0_ RTR  IFQ 48 cbr 520 [0 0 0 0] ------- [0:0 5:0 32 0] [45] 0 0
s 0.755000000 _0_ AGT  --- 54 cbr 500 [0 0 0 0] ------- [0:0 5:0 32 0] [51] 0 0
r 0.755000000 _0_ RTR  --- 54 cbr 500 [0 0 0 0] ------- [0:0 5:0 32 0] [51] 0 0
D 0.755000000 _0_ RTR  IFQ 49 cbr 520 [0 0 0 0] ------- [0:0 5:0 32 0] [46] 0 0
s 0.760000000 _0_ AGT  --- 55 cbr 500 [0 0 0 0] ------- [0:0 5:0 32 0] [52] 0 0
r 0.760000000 _0_ RTR  --- 55 cbr 500 [0 0 0 0] ------- [0:0 5:0 32 0] [52] 0 0
D 0.760000000 _0_ RTR  IFQ 50 cbr 520 [0 0 0 0] ------- [0:0 5:0 32 0] [47] 0 0
s 0.765000000 _0_ AGT  --- 56 cbr 500 [0 0 0 0] ------- [0:0 5:0 32 0] [53] 0 0
r 0.765000000 _0_ RTR  --- 56 cbr 500 [0 0 0 0] ------- [0:0 5:0 32 0] [53] 0 0
D 0.765000000 _0_ RTR  IFQ 51 cbr 520 [0 0 0 0] ------- [0:0 5:0 32 0] [48] 0 0
s 0.770000000 _0_ AGT  --- 57 cbr 500 [0 0 0 0] ------- [0:0 5:0 32 0] [54] 0 0
r 0.770000000 _0_ RTR  --- 57 cbr 500 [0 0 0 0] ------- [0:0 5:0 32 0] [54] 0 0
D 0.770000000 _0_ RTR  IFQ 52 cbr 520 [0 0 0 0] ------- [0:0 5:0 32 0] [49] 0 0
s 0.775000000 _0_ AGT  --- 58 cbr 500 [0 0 0 0] ------- [0:0 5:0 32 0] [55] 0 0
r 0.775000000 _0_ RTR  --- 58 cbr 500 [0 0 0 0] ------- [0:0 5:0 32 0] [55] 0 0
D 0.775000000 _0_ RTR  IFQ 53 cbr 520 [0 0 0 0] ------- [0:0 5:0 32 0] [50] 0 0
s 0.780000000 _0_ AGT  --- 59 cbr 500 [0 0 0 0] ------- [0:0 5:0 32 0] [56] 0 0
r 0.780000000 _0_ RTR  --- 59 cbr 500 [0 0 0 0] ------- [0:0 5:0 32 0] [56] 0 0
D 0.780000000 _0_ RTR  IFQ 54 cbr 520 [0 0 0 0] ------- [0:0 5:0 32 0] [51] 0 0
s 0.785000000 _0_ AGT  --- 60 cbr 500 [0 0 0 0] ------- [0:0 5:0 32 0] [57] 0 0
r 0.785000000 _0_ RTR  --- 60 cbr 500 [0 0 0 0] ------- [0:0 5:0 32 0] [57] 0 0
D 0.785000000 _0_ RTR  IFQ 55 cbr 520 [0 0 0 0] ------- [0:0 5:0 32 0] [52] 0 0
s 0.790000000 _0_ AGT  --- 61 cbr 500 [0 0 0 0] ------- [0:0 5:0 32 0] [58] 0 0
r 0.790000000 _0_ RTR  --- 61 cbr 500 [0 0 0 0] ------- [0:0 5:0 32 0] [58] 0 0
D 0.790000000 _0_ RTR  IFQ 56 cbr 520 [0 0 0 0] ------- [0:0 5:0 32 0] [53] 0 0
s 0.795000000 _0_ AGT  --- 62 cbr 500 [0 0 0 0] ------- [0:0 5:0 32 0] [59] 0 0
r 0.795000000 _0_ RTR  --- 62 cbr 500 [0 0 0 0] ------- [0:0 5:0 32 0] [59] 0 0
D 0.795000000 _0_ RTR  IFQ 57 cbr 520 [0 0 0 0] ------- [0:0 5:0 32 0] [54] 0 0
s 0.800000000 _0_ AGT  --- 63 cbr 500 [0 0 0 0] ------- [0:0 5:0 32 0] [60] 0 0
r 0.800000000 _0_ RTR  --- 63 cbr 500 [0 0 0 0] ------- [0:0 5:0 32 0] [60] 0 0
D 0.800000000 _0_ RTR  IFQ 58 cbr 520 [0 0 0 0] ------- [0:0 5:0 32 0] [55] 0 0
s 0.805000000 _0_ AGT  --- 64 cbr 500 [0 0 0 0] ------- [0:0 5:0 32 0] [61] 0 0
r 0.805000000 _0_ RTR  --- 64 cbr 500 [0 0 0 0] ------- [0:0 5:0 32 0] [61] 0 0
D 0.805000000 _0_ RTR  IFQ 59 cbr 520 [0 0 0 0] ------- [0:0 5:0 32 0] [56] 0 0
s 0.810000000 _0_ AGT  --- 65 cbr 500 [0 0 0 0] ------- [0:0 5:0 32 0] [62] 0 0
r 0.810000000 _0_ RTR  --- 65 cbr 500 [0 0 0 0] ------- [0:0 5:0 32 0] [62] 0 0
D 0.810000000 _0_ RTR  IFQ 60 cbr 520 [0 0 0 0] ------- [0:0 5:0 32 0] [57] 0 0
s 0.815000000 _0_ AGT  --- 66 cbr 500 [0 0 0 0] ------- [0:0 5:0 32 0] [63] 0 0
r 0.815000000 _0_ RTR  --- 66 cbr 500 [0 0 0 0] ------- [0:0 5:0 32 0] [63] 0 0
D 0.815000000 _0_ RTR  IFQ 61 cbr 520 [0 0 0 0] ------- [0:0 5:0 32 0] [58] 0 0
s 0.820000000 _0_ AGT  --- 67 cbr 500 [0 0 0 0] ------- [0:0 5:0 32 0] [64] 0 0
r 0.820000000 _0_ RTR  --- 67 cbr 500 [0 0 0 0] ------- [0:0 5:0 32 0] [64] 0 0
D 0.820000000 _0_ RTR  IFQ 62 cbr 520 [0 0 0 0] ------- [0:0 5:0 32 0] [59] 0 0
s 0.825000000 _0_ AGT  --- 68 cbr 500 [0 0 0 0] ------- [0:0 5:0 32 0] [65] 0 0
r 0.825000000 _0_ RTR  --- 68 cbr 500 [0 0 0 0] ------- [0:0 5:0 32 0] [65] 0 0
D 0.825000000 _0_ RTR  IFQ 63 cbr 520 [0 0 0 0] ------- [0:0 5:0 32 0] [60] 0 0
s 0.830000000 _0_ AGT  --- 69 cbr 500 [0 0 0 0] ------- [0:0 5:0 32 0] [66] 0 0
r 0.830000000 _0_ RTR  --- 69 cbr 500 [0 0 0 0] ------- [0:0 5:0 32 0] [66] 0 0
D 0.830000000 _0_ RTR  IFQ 64 cbr 520 [0 0 0 0] ------- [0:0 5:0 32 0] [61] 0 0
s 0.835000000 _0_ AGT  --- 70 cbr 500 [0 0 0 0] ------- [0:0 5:0 32 0] [67] 0 0
r 0.835000000 _0_ RTR  --- 70 cbr 500 [0 0 0 0] ------- [0:0 5:0 32 0] [67] 0 0
D 0.835000000 _0_ RTR  IFQ 65 cbr 520 [0 0 0 0] ------- [0:0 5:0 32 0] [62] 0 0
s 0.840000000 _0_ AGT  --- 71 cbr 500 [0 0 0 0] ------- [0:0 5:0 32 0] [68] 0 0
r 0.840000000 _0_ RTR  --- 71 cbr 500 [0 0 0 0] ------- [0:0 5:0 32 0] [68] 0 0
D 0.840000000 _0_ RTR  IFQ 66 cbr 520 [0 0 0 0] ------- [0:0 5:0 32 0] [63] 0 0
s 0.845000000 _0_ AGT  --- 72 cbr 500 [0 0 0 0] ------- [0:0 5:0 32 0] [69] 0 0
r 0.845000000 _0_ RTR  --- 72 cbr 500 [0 0 0 0] ------- [0:0 5:0 32 0] [69] 0 0
D 0.845000000 _0_ RTR  IFQ 67 cbr 520 [0 0 0 0] ------- [0:0 5:0 32 0] [64] 0 0
s 0.850000000 _0_ AGT  --- 73 cbr 500 [0 0 0 0] ------- [0:0 5:0 32 0] [70] 0 0
r 0.850000000 _0_ RTR  --- 73 cbr 500 [0 0 0 0] ------- [0:0 5:0 32 0] [70] 0 0
D 0.850000000 _0_ RTR  IFQ 68 cbr 520 [0 0 0 0] ------- [0:0 5:0 32 0] [65] 0 0
s 0.855000000 _0_ AGT  --- 74 cbr 500 [0 0 0 0] ------- [0:0 5:0 32 0] [71] 0 0
r 0.855000000 _0_ RTR  --- 74 cbr 500 [0 0 0 0] ------- [0:0 5:0 32 0] [71] 0 0
D 0.855000000 _0_ RTR  IFQ 69 cbr 520 [0 0 0 0] ------- [0:0 5:0 32 0] [66] 0 0
s 0.860000000 _0_ AGT  --- 75 cbr 500 [0 0 0 0] ------- [0:0 5:0 32 0] [72] 0 0
r 0.860000000 _0_ RTR  --- 75 cbr 500 [0 0 0 0] ------- [0:0 5:0 32 0] [72] 0 0
D 0.860000000 _0_ RTR  IFQ 70 cbr 520 [0 0 0 0] ------- [0:0 5:0 32 0] [67] 0 0
s 0.865000000 _0_ AGT  --- 76 cbr 500 [0 0 0 0] ------- [0:0 5:0 32 0] [73] 0 0
r 0.865000000 _0_ RTR  --- 76 cbr 500 [0 0 0 0] ------- [0:0 5:0 32 0] [73] 0 0
D 0.865000000 _0_ RTR  IFQ 71 cbr 520 [0 0 0 0] ------- [0:0 5:0 32 0] [68] 0 0
s 0.870000000 _0_ AGT  --- 77 cbr 500 [0 0 0 0] ------- [0:0 5:0 32 0] [74] 0 0
r 0.870000000 _0_ RTR  --- 77 cbr 500 [0 0 0 0] ------- [0:0 5:0 32 0] [74] 0 0
D 0.870000000 _0_ RTR  IFQ 72 cbr 520 [0 0 0 0] ------- [0:0 5:0 32 0] [69] 0 0
s 0.875000000 _0_ AGT  --- 78 cbr 500 [0 0 0 0] ------- [0:0 5:0 32 0] [75] 0 0
r 0.875000000 _0_ RTR  --- 78 cbr 500 [0 0 0 0] ------- [0:0 5:0 32 0] [75] 0 0
D 0.875000000 _0_ RTR  IFQ 73 cbr 520 [0 0 0 0] ------- [0:0 5:0 32 0] [70] 0 0
s 0.880000000 _0_ AGT  --- 79 cbr 500 [0 0 0 0] ------- [0:0 5:0 32 0] [76] 0 0
r 0.880000000 _0_ RTR  --- 79 cbr 500 [0 0 0 0] ------- [0:0 5:0 32 0] [76] 0 0
D 0.880000000 _0_ RTR  IFQ 74 cbr 520 [0 0 0 0] ------- [0:0 5:0 32 0] [71] 0 0
s 0.884094817 _4_ RTR  --- 80 message 32 [0 0 0 0] ------- [4:255 -1:255 32 0] 
s 0.885000000 _0_ AGT  --- 81 cbr 500 [0 0 0 0] ------- [0:0 5:0 32 0] [77] 0 0
r 0.885000000 _0_ RTR  --- 81 cbr 500 [0 0 0 0] ------- [0:0 5:0 32 0] [77] 0 0
D 0.885000000 _0_ RTR  IFQ 75 cbr 520 [0 0 0 0] ------- [0:0 5:0 32 0] [72] 0 0
r 0.885234817 _3_ RTR  --- 80 message 32 [0 ffffffff 4 800] ------- [4:255 -1:255 32 0] 
r 0.885234817 _2_ RTR  --- 80 message 32 [0 ffffffff 4 800] ------- [4:255 -1:255 32 0] 
r 0.885234817 _1_ RTR  --- 80 message 32 [0 ffffffff 4 800] ------- [4:255 -1:255 32 0] 
r 0.885234817 _0_ RTR  --- 80 message 32 [0 ffffffff 4 800] ------- [4:255 -1:255 32 0] 
r 0.885234817 _5_ RTR  --- 80 message 32 [0 ffffffff 4 800] ------- [4:255 -1:255 32 0] 
s 0.890000000 _0_ AGT  --- 82 cbr 500 [0 0 0 0] ------- [0:0 5:0 32 0] [78] 0 0
r 0.890000000 _0_ RTR  --- 82 cbr 500 [0 0 0 0] ------- [0:0 5:0 32 0] [78] 0 0
D 0.890000000 _0_ RTR  IFQ 76 cbr 520 [0 0 0 0] ------- [0:0 5:0 32 0] [73] 0 0
s 0.895000000 _0_ AGT  --- 83 cbr 500 [0 0 0 0] ------- [0:0 5:0 32 0] [79] 0 0
r 0.895000000 _0_ RTR  --- 83 cbr 500 [0 0 0 0] ------- [0:0 5:0 32 0] [79] 0 0
D 0.895000000 _0_ RTR  IFQ 77 cbr 520 [0 0 0 0] ------- [0:0 5:0 32 0] [74] 0 0
s 0.900000000 _0_ AGT  --- 84 cbr 500 [0 0 0 0] ------- [0:0 5:0 32 0] [80] 0 0
r 0.900000000 _0_ RTR  --- 84 cbr 500 [0 0 0 0] ------- [0:0 5:0 32 0] [80] 0 0
D 0.900000000 _0_ RTR  IFQ 78 cbr 520 [0 0 0 0] ------- [0:0 5:0 32 0] [75] 0 0
s 0.905000000 _0_ AGT  --- 85 cbr 500 [0 0 0 0] ------- [0:0 5:0 32 0] [81] 0 0
r 0.905000000 _0_ RTR  --- 85 cbr 500 [0 0 0 0] ------- [0:0 5:0 32 0] [81] 0 0
D 0.905000000 _0_ RTR  IFQ 79 cbr 520 [0 0 0 0] ------- [0:0 5:0 32 0] [76] 0 0
s 0.910000000 _0_ AGT  --- 86 cbr 500 [0 0 0 0] ------- [0:0 5:0 32 0] [82] 0 0
r 0.910000000 _0_ RTR  --- 86 cbr 500 [0 0 0 0] ------- [0:0 5:0 32 0] [82] 0 0
D 0.910000000 _0_ RTR  IFQ 81 cbr 520 [0 0 0 0] ------- [0:0 5:0 32 0] [77] 0 0
s 0.915000000 _0_ AGT  --- 87 cbr 500 [0 0 0 0] ------- [0:0 5:0 32 0] [83] 0 0
r 0.915000000 _0_ RTR  --- 87 cbr 500 [0 0 0 0] ------- [0:0 5:0 32 0] [83] 0 0
D 0.915000000 _0_ RTR  IFQ 82 cbr 520 [0 0 0 0] ------- [0:0 5:0 32 0] [78] 0 0
s 0.920000000 _0_ AGT  --- 88 cbr 500 [0 0 0 0] ------- [0:0 5:0 32 0] [84] 0 0
r 0.920000000 _0_ RTR  --- 88 cbr 500 [0 0 0 0] ------- [0:0 5:0 32 0] [84] 0 0
D 0.920000000 _0_ RTR  IFQ 83 cbr 520 [0 0 0 0] ------- [0:0 5:0 32 0] [79] 0 0
s 0.925000000 _0_ AGT  --- 89 cbr 500 [0 0 0 0] ------- [0:0 5:0 32 0] [85] 0 0
r 0.925000000 _0_ RTR  --- 89 cbr 500 [0 0 0 0] ------- [0:0 5:0 32 0] [85] 0 0
D 0.925000000 _0_ RTR  IFQ 84 cbr 520 [0 0 0 0] ------- [0:0 5:0 32 0] [80] 0 0
s 0.930000000 _0_ AGT  --- 90 cbr 500 [0 0 0 0] ------- [0:0 5:0 32 0] [86] 0 0
r 0.930000000 _0_ RTR  --- 90 cbr 500 [0 0 0 0] ------- [0:0 5:0 32 0] [86] 0 0
D 0.930000000 _0_ RTR  IFQ 85 cbr 520 [0 0 0 0] ------- [0:0 5:0 32 0] [81] 0 0
s 0.935000000 _0_ AGT  --- 91 cbr 500 [0 0 0 0] ------- [0:0 5:0 32 0] [87] 0 0
r 0.935000000 _0_ RTR  --- 91 cbr 500 [0 0 0 0] ------- [0:0 5:0 32 0] [87] 0 0
D 0.935000000 _0_ RTR  IFQ 86 cbr 520 [0 0 0 0] ------- [0:0 5:0 32 0] [82] 0 0
s 0.940000000 _0_ AGT  --- 92 cbr 500 [0 0 0 0] ------- [0:0 5:0 32 0] [88] 0 0
r 0.940000000 _0_ RTR  --- 92 cbr 500 [0 0 0 0] ------- [0:0 5:0 32 0] [88] 0 0
D 0.940000000 _0_ RTR  IFQ 87 cbr 520 [0 0 0 0] ------- [0:0 5:0 32 0] [83] 0 0
s 0.945000000 _0_ AGT  --- 93 cbr 500 [0 0 0 0] ------- [0:0 5:0 32 0] [89] 0 0
r 0.945000000 _0_ RTR  --- 93 cbr 500 [0 0 0 0] ------- [0:0 5:0 32 0] [89] 0 0
D 0.945000000 _0_ RTR  IFQ 88 cbr 520 [0 0 0 0] ------- [0:0 5:0 32 0] [84] 0 0
s 0.950000000 _0_ AGT  --- 94 cbr 500 [0 0 0 0] ------- [0:0 5:0 32 0] [90] 0 0
r 0.950000000 _0_ RTR  --- 94 cbr 500 [0 0 0 0] ------- [0:0 5:0 32 0] [90] 0 0
D 0.950000000 _0_ RTR  IFQ 89 cbr 520 [0 0 0 0] ------- [0:0 5:0 32 0] [85] 0 0
s 0.955000000 _0_ AGT  --- 95 cbr 500 [0 0 0 0] ------- [0:0 5:0 32 0] [91] 0 0
r 0.955000000 _0_ RTR  --- 95 cbr 500 [0 0 0 0] ------- [0:0 5:0 32 0] [91] 0 0
D 0.955000000 _0_ RTR  IFQ 90 cbr 520 [0 0 0 0] ------- [0:0 5:0 32 0] [86] 0 0
s 0.960000000 _0_ AGT  --- 96 cbr 500 [0 0 0 0] ------- [0:0 5:0 32 0] [92] 0 0
r 0.960000000 _0_ RTR  --- 96 cbr 500 [0 0 0 0] ------- [0:0 5:0 32 0] [92] 0 0
D 0.960000000 _0_ RTR  IFQ 91 cbr 520 [0 0 0 0] ------- [0:0 5:0 32 0] [87] 0 0
s 0.965000000 _0_ AGT  --- 97 cbr 500 [0 0 0 0] ------- [0:0 5:0 32 0] [93] 0 0
r 0.965000000 _0_ RTR  --- 97 cbr 500 [0 0 0 0] ------- [0:0 5:0 32 0] [93] 0 0
D 0.965000000 _0_ RTR  IFQ 92 cbr 520 [0 0 0 0] ------- [0:0 5:0 32 0] [88] 0 0
s 0.970000000 _0_ AGT  --- 98 cbr 500 [0 0 0 0] ------- [0:0 5:0 32 0] [94] 0 0
r 0.970000000 _0_ RTR  --- 98 cbr 500 [0 0 0 0] ------- [0:0 5:0 32 0] [94] 0 0
D 0.970000000 _0_ RTR  IFQ 93 cbr 520 [0 0 0 0] ------- [0:0 5:0 32 0] [89] 0 0
s 0.975000000 _0_ AGT  --- 99 cbr 500 [0 0 0 0] ------- [0:0 5:0 32 0] [95] 0 0
r 0.975000000 _0_ RTR  --- 99 cbr 500 [0 0 0 0] ------- [0:0 5:0 32 0] [95] 0 0
D 0.975000000 _0_ RTR  IFQ 94 cbr 520 [0 0 0 0] ------- [0:0 5:0 32 0] [90] 0 0
s 0.980000000 _0_ AGT  --- 100 cbr 500 [0 0 0 0] ------- [0:0 5:0 32 0] [96] 0 0
r 0.980000000 _0_ RTR  --- 100 cbr 500 [0 0 0 0] ------- [0:0 5:0 32 0] [96] 0 0
D 0.980000000 _0_ RTR  IFQ 95 cbr 520 [0 0 0 0] ------- [0:0 5:0 32 0] [91] 0 0
s 0.985000000 _0_ AGT  --- 101 cbr 500 [0 0 0 0] ------- [0:0 5:0 32 0] [97] 0 0
r 0.985000000 _0_ RTR  --- 101 cbr 500 [0 0 0 0] ------- [0:0 5:0 32 0] [97] 0 0
D 0.985000000 _0_ RTR  IFQ 96 cbr 520 [0 0 0 0] ------- [0:0 5:0 32 0] [92] 0 0
s 0.990000000 _0_ AGT  --- 102 cbr 500 [0 0 0 0] ------- [0:0 5:0 32 0] [98] 0 0
r 0.990000000 _0_ RTR  --- 102 cbr 500 [0 0 0 0] ------- [0:0 5:0 32 0] [98] 0 0
D 0.990000000 _0_ RTR  IFQ 97 cbr 520 [0 0 0 0] ------- [0:0 5:0 32 0] [93] 0 0
s 0.995000000 _0_ AGT  --- 103 cbr 500 [0 0 0 0] ------- [0:0 5:0 32 0] [99] 0 0
r 0.995000000 _0_ RTR  --- 103 cbr 500 [0 0 0 0] ------- [0:0 5:0 32 0] [99] 0 0
D 0.995000000 _0_ RTR  IFQ 98 cbr 520 [0 0 0 0] ------- [0:0 5:0 32 0] [94] 0 0
s 1.000000000 _0_ AGT  --- 104 cbr 500 [0 0 0 0] ------- [0:0 5:0 32 0] [100] 0 0
r 1.000000000 _0_ RTR  --- 104 cbr 500 [0 0 0 0] ------- [0:0 5:0 32 0] [100] 0 0
D 1.000000000 _0_ RTR  IFQ 99 cbr 520 [0 0 0 0] ------- [0:0 5:0 32 0] [95] 0 0
s 1.005000000 _0_ AGT  --- 105 cbr 500 [0 0 0 0] ------- [0:0 5:0 32 0] [101] 0 0
r 1.005000000 _0_ RTR  --- 105 cbr 500 [0 0 0 0] ------- [0:0 5:0 32 0] [101] 0 0
D 1.005000000 _0_ RTR  IFQ 100 cbr 520 [0 0 0 0] ------- [0:0 5:0 32 0] [96] 0 0
s 1.010000000 _0_ AGT  --- 106 cbr 500 [0 0 0 0] ------- [0:0 5:0 32 0] [102] 0 0
r 1.010000000 _0_ RTR  --- 106 cbr 500 [0 0 0 0] ------- [0:0 5:0 32 0] [102] 0 0
D 1.010000000 _0_ RTR  IFQ 101 cbr 520 [0 0 0 0] ------- [0:0 5:0 32 0] [97] 0 0
s 1.015000000 _0_ AGT  --- 107 cbr 500 [0 0 0 0] ------- [0:0 5:0 32 0] [103] 0 0
r 1.015000000 _0_ RTR  --- 107 cbr 500 [0 0 0 0] ------- [0:0 5:0 32 0] [103] 0 0
D 1.015000000 _0_ RTR  IFQ 102 cbr 520 [0 0 0 0] ------- [0:0 5:0 32 0] [98] 0 0
s 1.020000000 _0_ AGT  --- 108 cbr 500 [0 0 0 0] ------- [0:0 5:0 32 0] [104] 0 0
r 1.020000000 _0_ RTR  --- 108 cbr 500 [0 0 0 0] ------- [0:0 5:0 32 0] [104] 0 0
D 1.020000000 _0_ RTR  IFQ 103 cbr 520 [0 0 0 0] ------- [0:0 5:0 32 0] [99] 0 0
s 1.025000000 _0_ AGT  --- 109 cbr 500 [0 0 0 0] ------- [0:0 5:0 32 0] [105] 0 0
r 1.025000000 _0_ RTR  --- 109 cbr 500 [0 0 0 0] ------- [0:0 5:0 32 0] [105] 0 0
D 1.025000000 _0_ RTR  IFQ 104 cbr 520 [0 0 0 0] ------- [0:0 5:0 32 0] [100] 0 0
s 1.030000000 _0_ AGT  --- 110 cbr 500 [0 0 0 0] ------- [0:0 5:0 32 0] [106] 0 0
r 1.030000000 _0_ RTR  --- 110 cbr 500 [0 0 0 0] ------- [0:0 5:0 32 0] [106] 0 0
D 1.030000000 _0_ RTR  IFQ 105 cbr 520 [0 0 0 0] ------- [0:0 5:0 32 0] [101] 0 0
s 1.035000000 _0_ AGT  --- 111 cbr 500 [0 0 0 0] ------- [0:0 5:0 32 0] [107] 0 0
r 1.035000000 _0_ RTR  --- 111 cbr 500 [0 0 0 0] ------- [0:0 5:0 32 0] [107] 0 0
D 1.035000000 _0_ RTR  IFQ 106 cbr 520 [0 0 0 0] ------- [0:0 5:0 32 0] [102] 0 0
s 1.040000000 _0_ AGT  --- 112 cbr 500 [0 0 0 0] ------- [0:0 5:0 32 0] [108] 0 0
r 1.040000000 _0_ RTR  --- 112 cbr 500 [0 0 0 0] ------- [0:0 5:0 32 0] [108] 0 0
D 1.040000000 _0_ RTR  IFQ 107 cbr 520 [0 0 0 0] ------- [0:0 5:0 32 0] [103] 0 0
s 1.045000000 _0_ AGT  --- 113 cbr 500 [0 0 0 0] ------- [0:0 5:0 32 0] [109] 0 0
r 1.045000000 _0_ RTR  --- 113 cbr 500 [0 0 0 0] ------- [0:0 5:0 32 0] [109] 0 0
D 1.045000000 _0_ RTR  IFQ 108 cbr 520 [0 0 0 0] ------- [0:0 5:0 32 0] [104] 0 0
s 1.050000000 _0_ AGT  --- 114 cbr 500 [0 0 0 0] ------- [0:0 5:0 32 0] [110] 0 0
r 1.050000000 _0_ RTR  --- 114 cbr 500 [0 0 0 0] ------- [0:0 5:0 32 0] [110] 0 0
D 1.050000000 _0_ RTR  IFQ 109 cbr 520 [0 0 0 0] ------- [0:0 5:0 32 0] [105] 0 0
s 1.055000000 _0_ AGT  --- 115 cbr 500 [0 0 0 0] ------- [0:0 5:0 32 0] [111] 0 0
r 1.055000000 _0_ RTR  --- 115 cbr 500 [0 0 0 0] ------- [0:0 5:0 32 0] [111] 0 0
D 1.055000000 _0_ RTR  IFQ 110 cbr 520 [0 0 0 0] ------- [0:0 5:0 32 0] [106] 0 0
s 1.060000000 _0_ AGT  --- 116 cbr 500 [0 0 0 0] ------- [0:0 5:0 32 0] [112] 0 0
r 1.060000000 _0_ RTR  --- 116 cbr 500 [0 0 0 0] ------- [0:0 5:0 32 0] [112] 0 0
D 1.060000000 _0_ RTR  IFQ 111 cbr 520 [0 0 0 0] ------- [0:0 5:0 32 0] [107] 0 0
s 1.065000000 _0_ AGT  --- 117 cbr 500 [0 0 0 0] ------- [0:0 5:0 32 0] [113] 0 0
r 1.065000000 _0_ RTR  --- 117 cbr 500 [0 0 0 0] ------- [0:0 5:0 32 0] [113] 0 0
D 1.065000000 _0_ RTR  IFQ 112 cbr 520 [0 0 0 0] ------- [0:0 5:0 32 0] [108] 0 0
s 1.070000000 _0_ AGT  --- 118 cbr 500 [0 0 0 0] ------- [0:0 5:0 32 0] [114] 0 0
r 1.070000000 _0_ RTR  --- 118 cbr 500 [0 0 0 0] ------- [0:0 5:0 32 0] [114] 0 0
D 1.070000000 _0_ RTR  IFQ 113 cbr 520 [0 0 0 0] ------- [0:0 5:0 32 0] [109] 0 0
s 1.075000000 _0_ AGT  --- 119 cbr 500 [0 0 0 0] ------- [0:0 5:0 32 0] [115] 0 0
r 1.075000000 _0_ RTR  --- 119 cbr 500 [0 0 0 0] ------- [0:0 5:0 32 0] [115] 0 0
D 1.075000000 _0_ RTR  IFQ 114 cbr 520 [0 0 0 0] ------- [0:0 5:0 32 0] [110] 0 0
s 1.080000000 _0_ AGT  --- 120 cbr 500 [0 0 0 0] ------- [0:0 5:0 32 0] [116] 0 0